Material_ID,Formula,pretty_formula,KV ,EV ,GV ,PV ,KR ,ER ,GR ,PR ,bulk,shear,young,poisson,csyst,gap,density,y_cla
mp-568077,TaFe2,TaFe2,228.67,246.62,93.4,0.32025,228.21,244.02,92.306,0.32179,228.44,92.853,245.32,0.32102,hexagonal,0,12.52252741,H4
mp-8996,Sc3RuC4,Sc3RuC4,186,283.57,113.8,0.24591,174.22,267.52,107.52,0.24408,180.11,110.66,275.55,0.24502,orthorhombic,0,5.055145268,H4
mp-1009834,Al2Ru,Al2Ru,154.67,298.02,126.4,0.17886,154.65,280.41,117.05,0.1978,154.66,121.73,289.28,0.18825,tetragonal,0,6.116557929,H4
mp-15963,HfPRu,HfPRu,221.33,251.62,96,0.31053,221.31,246.54,93.787,0.31434,221.32,94.894,249.08,0.31243,hexagonal,0,11.37087549,H4
mp-1778,BeO,BeO,139,321.11,144,0.11497,139,270.79,115.2,0.17531,139,129.6,296.61,0.14435,cubic,6.9752,2.97074884,H2
mp-865218,YbTiO3,YbTiO3,179.33,277.69,111.8,0.24192,179.33,272.73,109.39,0.24654,179.33,110.6,275.21,0.24422,cubic,1.9649,7.80591614,H5
mp-425,GdB2,GdB2,145.67,295.93,127.4,0.16141,144.73,290.99,124.9,0.1649,145.2,126.15,293.46,0.16315,hexagonal,0,7.971495896,H4
mp-5223,GdAlO3,GdAlO3,186,276.91,110.6,0.25187,183.23,266.66,106.03,0.25744,184.62,108.32,271.8,0.25463,orthorhombic,3.2481,7.235658792,H2
mp-1400,HfW2,HfW2,223,249.1,94.8,0.31383,223,245.86,93.392,0.31625,223,94.096,247.48,0.31504,cubic,0,16.35379953,H1a
mp-8648,TiFeSi,TiFeSi,183.33,281.22,113,0.24434,183.15,263.68,104.63,0.26006,183.24,108.81,272.5,0.25215,orthorhombic,0,5.624878094,H4
mp-11553,TlPt,TlPt,66.556,22.89,7.9333,0.44268,991.73,29.28,9.7921,0.49508,529.14,8.8627,26.441,0.49167,hexagonal,0,13.06264729,H4
mp-972845,SiMo,SiMo,204.67,286.74,113.2,0.2665,193.26,238.44,92.109,0.29437,198.96,102.65,262.77,0.27988,hexagonal,0,6.87370602,H4
mp-11276,BeRh,BeRh,206.67,261,101.2,0.28952,206.67,254.78,98.407,0.29453,206.67,99.804,257.9,0.29202,cubic,0,8.590553768,H1a
mp-569815,Si2Ru,Si2Ru,185.67,273.06,108.8,0.25488,183.6,269.97,107.56,0.25493,184.63,108.18,271.52,0.2549,orthorhombic,0.4821,6.121951482,H2
mp-570963,TaCr2,TaCr2,243,235.09,87.8,0.33876,242.99,232.81,86.847,0.34032,242.99,87.324,233.95,0.33954,hexagonal,0,11.3072658,H4
mp-7405,SmAlO3,SmAlO3,182.33,278.07,111.6,0.24582,178.45,269.28,107.84,0.2485,180.39,109.72,273.68,0.24715,orthorhombic,4.774,6.961197192,H2
mp-977401,NbGaRu2,NbGaRu2,192.67,266.14,104.8,0.26977,192.67,266.1,104.78,0.26981,192.67,104.79,266.12,0.26979,cubic,0,10.0823412,H1a
mp-571367,Hf(CoSi)2,Hf(CoSi)2,190.56,269.4,106.53,0.26438,190.44,265.34,104.65,0.26779,190.5,105.59,267.37,0.26608,tetragonal,0,8.748421577,H4
mp-2794,Fe5C2,Fe5C2,233.78,266.84,101.87,0.30976,233.01,211.9,78.572,0.34843,233.39,90.219,239.76,0.32878,monoclinic,0,7.786991689,H4
mp-31624,Sr2TaCrO6,Sr2TaCrO6,187.33,269.66,107,0.26009,187.33,268.62,106.51,0.26102,187.33,106.75,269.14,0.26055,cubic,2.8441,6.556700221,H2
mp-570430,TaCo2,TaCo2,222.11,256,97.867,0.3079,220.92,238.93,90.523,0.31974,221.51,94.195,247.5,0.31378,hexagonal,0,13.02475053,H4
mp-865569,Ti2MnIr,Ti2MnIr,212.33,258.85,99.8,0.29682,212.33,247.89,94.945,0.30543,212.33,97.373,253.38,0.30111,cubic,0,10.07359063,H1a
mp-11541,ZrOs,ZrOs,209,256.5,99,0.29545,209,254.41,98.068,0.29712,209,98.534,255.46,0.29629,cubic,0,13.11886245,H1a
mp-22287,NbGeIr,NbGeIr,224.89,250.13,95.133,0.31463,222.97,241.24,91.401,0.31967,223.93,93.267,245.69,0.31714,orthorhombic,0,12.40314133,H4
mp-33009,MnO2,MnO2,175.67,293.63,120.2,0.22142,173.75,258.65,103.31,0.25189,174.71,111.75,276.34,0.23638,orthorhombic,0.4575,4.961372677,H2
mp-13853,P3Ir,P3Ir,170.33,278.82,113.6,0.22719,170.33,278.75,113.57,0.22725,170.33,113.58,278.78,0.22722,cubic,0.0871,7.171875106,H5
mp-567996,Nb5Si3,Nb5Si3,191.78,270.8,107.07,0.26465,189.99,262.07,103.17,0.2701,190.88,105.12,266.44,0.26736,tetragonal,0,7.006025135,H4
mp-9755,HfGeO4,HfGeO4,232.67,248.06,93.8,0.3223,228.7,233.61,87.838,0.32976,230.69,90.819,240.85,0.32599,tetragonal,4.1392,8.265722259,H4
mp-14344,Yb2(NiB2)3,Yb2(NiB2)3,158.33,288.92,120.8,0.19587,157.75,281.43,117,0.20266,158.04,118.9,285.18,0.19925,orthorhombic,0,8.528799177,H4
mp-675334,LiTi2O4,LiTi2O4,159.89,290.13,121.13,0.19757,157.83,279.19,115.83,0.20518,158.86,118.48,284.67,0.20134,monoclinic,0,4.080888445,H4
mp-19299,CrBO3,CrBO3,190,287.08,115,0.24818,172.03,257.06,102.75,0.25095,181.01,108.87,272.07,0.24949,trigonal,0,4.046621619,H2
mp-1001827,IrC,IrC,334.44,205.88,73.667,0.3974,332.16,130.57,45.511,0.43448,333.3,59.589,168.71,0.41564,hexagonal,0,15.74347524,H4
mp-861882,LiGeIr2,LiGeIr2,172.33,276.98,112.4,0.23213,172.33,276.47,112.15,0.23262,172.33,112.27,276.73,0.23237,cubic,0,14.66976738,H1a
mp-15955,Y(BC)2,Y(BC)2,193.22,298.12,119.93,0.24285,152.38,254.49,104.16,0.22164,172.8,112.05,276.4,0.23341,tetragonal,0,4.275293894,H4
mp-1008677,TiO2,TiO2,250.33,310.85,120.2,0.29304,250.33,134.76,47.779,0.41028,250.33,83.99,226.62,0.34912,cubic,1.1182,4.678793201,H5
mp-4170,NaTaO3,NaTaO3,211,268.86,104.4,0.28763,211,235.94,89.803,0.31364,211,97.101,252.56,0.3005,cubic,2.3172,6.620260982,H2
mp-864672,NbSiTc2,NbSiTc2,240.67,233.89,87.4,0.33803,240.67,231.41,86.364,0.33974,240.67,86.882,232.65,0.33889,cubic,0,8.897149894,H1a
mp-189,SiRu,SiRu,204.67,269.87,105.4,0.28023,204.67,242.13,92.926,0.30282,204.67,99.163,256.12,0.29143,cubic,0.2541,8.03512979,H5
mp-3623,MnAlCo2,MnAlCo2,192,285.5,114,0.25217,192,241.88,93.75,0.29003,192,103.88,264.01,0.27082,cubic,0,7.162480763,H1a
mp-715923,WO3,WO3,205.56,294.04,116.53,0.26159,193.97,222.97,85.204,0.30842,199.77,100.87,259.01,0.2839,orthorhombic,1.1701,6.682386992,H2
mp-20147,ZrMnP,ZrMnP,175,279.77,113.4,0.23355,174.31,268.49,107.98,0.24328,174.65,110.69,274.15,0.23839,orthorhombic,0,6.64687689,H4
mp-30852,TiPt8,TiPt8,241.67,239.71,89.8,0.33468,241.64,222.92,82.794,0.34625,241.66,86.297,231.35,0.34044,tetragonal,0,19.0827259,H4
mp-864651,Ta2NbRu,Ta2NbRu,225,246.6,93.6,0.31733,225,238.24,90,0.32353,225,91.8,242.43,0.32042,cubic,0,13.63375413,H1a
mp-866299,ErTaOs2,ErTaOs2,221,247.44,94.2,0.31339,221,242.31,91.974,0.31726,221,93.087,244.88,0.31532,cubic,0,17.2823875,H1a
mp-865382,V3Ru,V3Ru,225.67,250.39,95.2,0.31507,225.67,232.79,87.64,0.32808,225.67,91.42,241.63,0.32154,cubic,0,7.857833738,H1a
mp-352,HfO2,HfO2,209.22,263.08,101.93,0.29043,200.18,247.28,95.541,0.29412,204.7,98.737,255.18,0.29223,monoclinic,4.0684,9.967760671,H2
mp-364,AlRh,AlRh,196,260.77,102,0.27826,196,260.24,101.76,0.27871,196,101.88,260.5,0.27848,cubic,0,7.934751924,H1a
mp-10208,NiMoP2,NiMoP2,189.89,271.37,107.53,0.26181,188.31,258.05,101.47,0.27161,189.1,104.5,264.74,0.26667,hexagonal,0,6.624753082,H4
mp-18766,Si(NiO2)2,Si(NiO2)2,198.33,259.03,101,0.28233,198.33,259,100.99,0.28236,198.33,100.99,259.01,0.28234,cubic,3.577,5.207363996,H2
mp-867904,AlGeRu2,AlGeRu2,219,247.16,94.2,0.3119,219,244.21,92.915,0.31415,219,93.557,245.69,0.31302,cubic,0,9.15991927,H1a
mp-1114,VP,VP,179.11,311.04,128.47,0.21057,162.43,239.13,95.301,0.25462,170.77,111.88,275.49,0.23113,hexagonal,0,5.074561659,H4
mp-972036,WN,WN,301.11,208.43,75.267,0.38463,280.12,184.77,66.462,0.39006,290.62,70.864,196.61,0.38724,hexagonal,0,13.75784729,H4
mp-20211,Mn3Si,Mn3Si,204,272.79,106.8,0.27713,204,237.18,90.789,0.30622,204,98.795,255.19,0.29151,cubic,0,7.078772648,H1a
mp-1929,NdB6,NdB6,174,306.83,127.2,0.2061,174,238.26,93.673,0.27178,174,110.44,273.46,0.23807,cubic,0,4.908783998,H1a
mp-10924,Mg(Co3P2)2,Mg(Co3P2)2,202.89,257.52,99.933,0.28846,202.6,253.71,98.24,0.29129,202.75,99.087,255.62,0.28987,hexagonal,0,6.633812086,H4
mp-862291,BeGaRh2,BeGaRh2,203,255.47,99,0.29025,203,255.44,98.985,0.29028,203,98.992,255.45,0.29027,cubic,0,9.421299698,H1a
mp-866115,Be2PdRh,Be2PdRh,198.33,264.27,103.4,0.27792,198.33,252.21,97.905,0.28806,198.33,100.65,258.27,0.28297,cubic,0,8.542205424,H1a
mp-864988,Mn2AlCr,Mn2AlCr,194.33,264.77,104,0.27293,194.33,256.08,100,0.28038,194.33,102,260.44,0.27664,cubic,0,6.653173779,H1a
mp-188,AlPt3,AlPt3,225,245.21,93,0.31836,225,236.02,89.053,0.32517,225,91.026,240.63,0.32176,cubic,0,16.84127849,H1a
mp-7099,NdB2Ru3,NdB2Ru3,211,250.53,96.2,0.30211,211,248.82,95.447,0.30346,211,95.823,249.67,0.30278,hexagonal,0,9.505732516,H4
mp-1215,Ti2O,Ti2O,183.78,278.16,111.47,0.24774,183.31,255.1,100.59,0.26807,183.55,106.03,266.72,0.25781,trigonal,0,5.012926967,H2
mp-756214,YAlO3,YAlO3,192,270.28,106.8,0.26538,191.22,253.1,98.912,0.2794,191.61,102.86,261.73,0.27234,trigonal,5.1176,5.229987876,H2
mp-760439,TaTiO4,TaTiO4,211,275.9,107.6,0.28207,210.47,222.4,83.995,0.32388,210.73,95.798,249.57,0.30261,tetragonal,0,7.010924302,H4
mp-867874,BeVRu2,BeVRu2,238.33,231.73,86.6,0.33795,238.33,230.91,86.256,0.33852,238.33,86.428,231.32,0.33824,cubic,0,8.766714992,H1a
mp-978500,Si2TcOs,Si2TcOs,227.33,252.92,96.2,0.31457,227.33,224.15,83.908,0.33567,227.33,90.054,238.65,0.32504,cubic,0,10.98311156,H1a
mp-867292,Ga2RuRh,Ga2RuRh,222.67,241.66,91.6,0.31912,222.67,241.59,91.568,0.31917,222.67,91.584,241.62,0.31914,cubic,0,10.23310076,H1a
mp-2211,V3Pt,V3Pt,217.67,249.26,95.2,0.30914,217.67,240.51,91.389,0.31584,217.67,93.295,244.9,0.31248,cubic,0,10.34946541,H1a
mp-866051,HfFe2Sn,HfFe2Sn,178.67,269.25,107.8,0.24884,178.67,269.16,107.76,0.24892,178.67,107.78,269.2,0.24888,cubic,0.1132,11.3228277,H5
mp-7250,Nb6Co7,Nb6Co7,213,251.74,96.6,0.30302,212.82,243.83,93.134,0.30905,212.91,94.867,247.8,0.30602,trigonal,0,8.885808577,H2
mp-984721,BeGaCo2,BeGaCo2,201.33,262.23,102.2,0.28292,201.33,248.12,95.829,0.2946,201.33,99.014,255.21,0.28874,cubic,0,7.770018878,H1a
mp-505554,Sc(FeSi)2,Sc(FeSi)2,172.33,276.98,112.4,0.23213,172.07,268.8,108.42,0.23965,172.2,110.41,272.9,0.23587,orthorhombic,0,5.391728323,H4
mp-11534,Np,Np,170.67,274.88,111.6,0.23156,170.3,272.83,110.64,0.23299,170.48,111.12,273.86,0.23227,orthorhombic,0,21.35704316,H4
mp-11506,Ni3Mo,Ni3Mo,230.33,246.84,93.4,0.32139,230.23,225.55,84.368,0.33672,230.28,88.884,236.26,0.32901,orthorhombic,0,9.512797164,H4
mp-22258,HfSiMo,HfSiMo,188.89,273.26,108.53,0.25889,188.15,252.81,99.06,0.27606,188.52,103.8,263.1,0.2674,orthorhombic,0,10.04908578,H4
mp-864764,Ta2FeOs,Ta2FeOs,248.67,227.47,84.4,0.34754,248.67,220.06,81.351,0.35251,248.67,82.875,223.77,0.35002,cubic,0,16.16472307,H1a
mp-1025264,U2W2C3,U2W2C3,201.56,271.29,106.33,0.27567,188.43,246.44,96.111,0.28203,194.99,101.22,258.87,0.27873,monoclinic,0,14.97700095,H4
mp-19443,WO3,WO3,202.22,293.27,116.53,0.2583,190.78,221.18,84.629,0.30677,196.5,100.58,257.76,0.28137,tetragonal,1.1508,6.656532553,H1a
mp-5229,SrTiO3,SrTiO3,173,271.88,109.8,0.23807,173,271.88,109.8,0.23807,173,109.8,271.88,0.23807,cubic,1.8274,4.962107642,H5
mp-1932,Nb3Os,Nb3Os,223,254.61,97.2,0.30971,223,226.3,85.018,0.33087,223,91.109,240.56,0.32021,cubic,0,11.20767857,H1a
mp-1016884,CaGeO3,CaGeO3,157,281.16,117,0.20153,157,280.25,116.53,0.2025,157,116.76,280.7,0.20201,cubic,0.5743,4.928537979,H5
mp-9761,ReO3,ReO3,183,284.43,114.6,0.24096,182.56,246.88,96.845,0.27461,182.78,105.72,265.9,0.25754,hexagonal,0,8.250240782,H4
mp-38843,CaTa2O6,CaTa2O6,173.67,296.95,122.2,0.21502,173.67,244.34,96.538,0.26551,173.67,109.37,271.18,0.23975,cubic,2.0982,6.623522659,H2
mp-3340,TaAlCo2,TaAlCo2,202.67,261.6,101.8,0.28487,202.67,245.16,94.408,0.29839,202.67,98.104,253.42,0.29159,cubic,0,10.24116562,H1a
mp-31187,TiAlFe2,TiAlFe2,184.33,266.43,105.8,0.25911,184.33,263.14,104.25,0.26208,184.33,105.03,264.79,0.26059,cubic,0,6.253070236,H1a
mp-19177,CrO2,CrO2,179.89,286.3,115.93,0.23475,178.2,249.07,98.285,0.26706,179.05,107.11,267.9,0.25062,tetragonal,0,4.629940118,H4
mp-19257,SmCrO3,SmCrO3,177.67,281.33,113.8,0.23609,177.67,255.59,101.41,0.26023,177.67,107.6,268.59,0.24804,cubic,0,7.130569292,H1a
mp-673174,Fe8N3,Fe8N3,212.89,247.49,94.733,0.30624,212.88,245.64,93.922,0.30768,212.88,94.328,246.57,0.30696,monoclinic,0,7.440144058,H4
mp-866152,TiBeCo2,TiBeCo2,192.67,259.67,101.8,0.27538,192.67,259.09,101.53,0.27587,192.67,101.67,259.38,0.27562,cubic,0,6.63992798,H1a
mp-5284,U(CrSi)2,U(CrSi)2,155.11,127.73,46.867,0.36275,154.34,401.18,188.03,0.066777,154.72,117.45,281.2,0.1971,tetragonal,0,8.419155688,H4
mp-862694,Al2IrRh,Al2IrRh,208,254.99,98.4,0.29568,208,243.3,93.214,0.30505,208,95.807,249.17,0.30035,cubic,0,10.56776491,H1a
mp-1019508,AlGa3N4,AlGa3N4,178,287.92,117,0.23041,178,247.05,97.364,0.26868,178,107.18,267.79,0.24926,cubic,2.8191,5.299635014,H2
mp-9981,Mn2N,Mn2N,198.44,257.44,100.27,0.28378,197.89,253.34,98.449,0.28663,198.17,99.358,255.39,0.2852,orthorhombic,0,6.987770318,H4
mp-19963,TiFe2Sn,TiFe2Sn,181.33,265.72,105.8,0.25577,181.33,265.58,105.73,0.25591,181.33,105.77,265.65,0.25584,cubic,0.0473,8.367357889,H5
mp-922,CoPt3,CoPt3,220.33,247.81,94.4,0.31255,220.33,233.69,88.302,0.32323,220.33,91.351,240.78,0.31787,cubic,0,18.17555723,H1a
mp-977435,ZrAlRh2,ZrAlRh2,201.67,8.3613,2.8,0.49309,201.67,439.01,193.02,0.13718,201.67,97.912,252.82,0.29106,cubic,0,8.407870261,H1a
mp-11507,Ni4Mo,Ni4Mo,222.44,258.78,99.067,0.30611,222.41,219.21,82.056,0.33573,222.43,90.561,239.22,0.32075,tetragonal,0,9.438041633,H4
mp-978504,SmGaO3,SmGaO3,188.33,260.93,102.8,0.26909,188.33,260.92,102.8,0.26909,188.33,102.8,260.92,0.26909,cubic,2.9425,7.727382864,H2
mp-754478,HfZrO4,HfZrO4,208.11,280.71,110.07,0.27519,200.96,219.63,83.33,0.31785,204.53,96.698,250.6,0.29579,orthorhombic,3.4347,7.102128807,H2
mp-1025127,UB2Rh2C,UB2Rh2C,209.89,129.99,46.533,0.39678,209.25,349.78,143.19,0.22141,209.57,94.86,247.27,0.30335,tetragonal,0,10.699409,H4
mp-1265,MgO,MgO,151.67,286.74,121,0.1849,151.67,276.53,115.59,0.19612,151.67,118.3,281.66,0.19048,cubic,4.638,3.471430968,H2
mp-864788,NbInRu2,NbInRu2,208.33,248.75,95.6,0.301,208.33,247.25,94.935,0.3022,208.33,95.268,248,0.3016,cubic,0,10.42212348,H1a
mp-20191,Si3Ru2,Si3Ru2,201.78,252.74,97.867,0.29124,201.33,251.58,97.379,0.29173,201.55,97.623,252.16,0.29149,tetragonal,0.3761,6.770044277,H1a
mp-8101,WN2,WN2,311.33,235.74,85.8,0.3738,309.41,116.99,40.708,0.43698,310.37,63.254,177.69,0.40458,trigonal,0,11.74500109,H2
mp-1804,Fe3N,Fe3N,206.89,249.72,96.133,0.29883,206.67,247.82,95.306,0.30015,206.78,95.72,248.77,0.29949,hexagonal,0,7.421215908,H4
mp-865809,TiTc2Sb,TiTc2Sb,212.67,249.88,95.8,0.30417,212.67,239.64,91.311,0.3122,212.67,93.556,244.77,0.30817,cubic,0,9.516408432,H1a
mp-2920,LaAlO3,LaAlO3,181.33,272.42,109,0.24962,180.85,256.07,101.29,0.26401,181.09,105.15,264.29,0.25676,trigonal,4.1049,6.371511635,H2
mp-9383,SrHfN2,SrHfN2,156.67,280.27,116.6,0.20184,156.63,275.99,114.4,0.20632,156.65,115.5,278.14,0.20407,trigonal,0.3518,8.451732228,H2
mp-1016827,MgGeO3,MgGeO3,178.67,265.5,106,0.25234,178.67,265.5,106,0.25234,178.67,106,265.5,0.25234,cubic,1.0993,4.682288444,H5
mp-29111,Al2Fe3Si4,Al2Fe3Si4,172.89,271.71,109.73,0.23806,171.36,266.8,107.54,0.2405,172.12,108.64,269.26,0.23927,orthorhombic,0,4.934229742,H4
mp-22302,ZrVP,ZrVP,176.56,274.76,110.73,0.24063,176.38,258.55,102.95,0.25568,176.47,106.84,266.7,0.24811,orthorhombic,0,6.212498056,H4
mp-1001581,LiC6,LiC6,241.89,466.92,198.13,0.17829,62.563,92.332,36.814,0.25403,152.23,117.47,280.31,0.19309,hexagonal,0,2.163964624,H4
mp-10456,HfSiPt,HfSiPt,192.33,259.6,101.8,0.27504,191.61,254.72,99.622,0.27844,191.97,100.71,257.16,0.27674,orthorhombic,0,13.66020784,H4
mp-867125,Al2RuPt,Al2RuPt,201,253.79,98.4,0.28956,201,248.94,96.22,0.29358,201,97.31,251.37,0.29157,cubic,0,10.46384156,H1a
mp-5025,Zr2CS,Zr2CS,165.22,275.53,112.73,0.22206,164.76,270.68,110.37,0.2262,164.99,111.55,273.11,0.22412,hexagonal,0,6.013909101,H4
mp-1009488,NiN,NiN,259,212.65,78,0.36316,259,212.46,77.922,0.36328,259,77.961,212.56,0.36322,cubic,0,7.210142452,H1a
mp-973133,ScCuPd2,ScCuPd2,171.33,20.134,6.8,0.48041,171.33,448.45,210.79,0.063762,171.33,108.79,269.37,0.23797,cubic,0,8.497007918,H1a
mp-862870,LiTcO3,LiTcO3,223,254.61,97.2,0.30971,223,218.78,81.85,0.33648,223,89.525,236.88,0.32296,cubic,0,4.43693588,H1a
mp-2947,SmB2Rh3,SmB2Rh3,199,260.91,101.8,0.28148,197.29,244.94,94.712,0.29307,198.14,98.256,252.96,0.28723,hexagonal,0,9.793294701,H4
mp-2031,Be2Cu,Be2Cu,136.67,287.74,125.2,0.1491,136.67,287.24,124.92,0.14971,136.67,125.06,287.49,0.14941,cubic,0,5.046496677,H1a
mp-862706,BeCo2Ge,BeCo2Ge,204.67,256.65,99.4,0.291,204.67,240.61,92.256,0.30406,204.67,95.828,248.67,0.2975,cubic,0,7.955382041,H1a
mp-449,Fe5Si3,Fe5Si3,185,265.73,105.4,0.2606,185,256.09,100.88,0.26929,185,103.14,260.93,0.26493,hexagonal,0,6.629144375,H4
mp-1180,MnPt3,MnPt3,217.33,247.38,94.4,0.31029,217.33,233.31,88.302,0.32108,217.33,91.351,240.37,0.31566,cubic,0,17.43267151,H1a
mp-16496,Al(CuRe)2,Al(CuRe)2,211.44,251.2,96.467,0.302,211.43,237.15,90.305,0.31306,211.44,93.386,244.2,0.3075,tetragonal,0,12.78965417,H4
mp-21447,Nb4CoP,Nb4CoP,197.22,253.4,98.533,0.28586,197.18,253.23,98.46,0.28595,197.2,98.497,253.32,0.28591,tetragonal,0,8.043992111,H4
mp-1699,AlCr2,AlCr2,186.89,261.76,103.33,0.26657,185.66,258.4,101.89,0.26803,186.27,102.61,260.08,0.2673,tetragonal,0,5.748722101,H4
mp-865094,HfNbTc2,HfNbTc2,216,248.1,94.8,0.30856,216,233.9,88.631,0.31952,216,91.716,241.03,0.31402,cubic,0,11.52785029,H1a
mp-1418,FeNi3,FeNi3,202.67,264.24,103,0.2827,202.67,234.7,89.787,0.30699,202.67,96.393,249.61,0.29473,cubic,0,8.700535754,H1a
mp-972442,SnBO3,SnBO3,184,323.09,133.8,0.20735,184,193.44,73.009,0.32478,184,103.4,261.27,0.26334,cubic,0,6.917640374,H1a
mp-2117,TbN,TbN,149.33,280.95,118.4,0.18644,149.33,280.94,118.4,0.18645,149.33,118.4,280.94,0.18645,cubic,0.1863,9.486434547,H5
mp-1009133,MnCo,MnCo,195.67,261.57,102.4,0.2772,195.67,246.39,95.489,0.29013,195.67,98.944,254.02,0.28363,cubic,0,8.137366157,H1a
mp-999388,NbC,NbC,218.33,284.75,111,0.28264,214.34,194.34,72.038,0.34888,216.33,91.519,240.63,0.31462,hexagonal,0,6.524031998,H4
mp-8045,V5P3N,V5P3N,213.89,249.91,95.733,0.30526,206.95,238.86,91.335,0.30763,210.42,93.534,244.39,0.30642,hexagonal,0,5.767210414,H4
mp-754134,HfZrO4,HfZrO4,207.89,279.94,109.73,0.27557,200.7,215.75,81.672,0.32083,204.29,95.703,248.33,0.29741,monoclinic,3.5755,7.099429192,H2
mp-8864,Li(Co3P2)2,Li(Co3P2)2,200,256.7,99.8,0.28608,198.99,245.69,94.918,0.29422,199.5,97.359,251.21,0.29013,hexagonal,0,6.50983129,H4
mp-4820,ZrSiO4,ZrSiO4,207.22,268.02,104.33,0.28444,200.27,228.3,87.138,0.31001,203.75,95.736,248.31,0.29688,tetragonal,4.4579,4.479509123,H4
mp-11833,UCuGe,UCuGe,260.22,106.34,37.133,0.43189,311.68,274.85,101.57,0.35303,285.95,69.351,192.49,0.38781,hexagonal,0,10.71256386,H4
mp-7544,ZrSiRu,ZrSiRu,191.67,260.33,102.2,0.27363,191.27,251.42,98.139,0.28093,191.47,100.17,255.88,0.27726,hexagonal,0,7.550997125,H4
mp-13463,FeNiPt2,FeNiPt2,210.11,252.79,97.267,0.29948,209.62,235.21,89.571,0.31298,209.86,93.419,244.05,0.30619,tetragonal,0,15.17114436,H4
mp-1008632,V2C,V2C,218.89,296.04,116.13,0.27459,218.84,175.61,64.268,0.36625,218.86,90.201,237.92,0.31882,trigonal,0,5.75733055,H2
mp-2385,TaCr2,TaCr2,241.67,223.9,83.2,0.34558,241.67,221.12,82.049,0.3475,241.67,82.625,222.51,0.34654,cubic,0,11.33718995,H1a
mp-1591,Al4C3,Al4C3,160.22,278.26,114.93,0.21054,160.07,269.39,110.45,0.21951,160.15,112.69,273.84,0.21501,trigonal,1.3422,2.930804107,H2
mp-19353,PrCrO3,PrCrO3,168,277.71,113.4,0.22449,168,260.98,105.14,0.24109,168,109.27,269.4,0.23273,cubic,1.8799,6.812662167,H5
mp-4978,Ti2AlN,Ti2AlN,155.22,277.7,115.53,0.20182,155.22,275.33,114.3,0.20437,155.22,114.92,276.52,0.2031,hexagonal,0,4.264332478,H4
mp-3923,Th2MnN3,Th2MnN3,194.11,257.49,100.67,0.27892,192.09,251.02,97.886,0.2822,193.1,99.276,254.26,0.28055,orthorhombic,0,10.71209143,H4
mp-30443,Be17Ru3,Be17Ru3,152,278.19,116.4,0.19497,152,278.18,116.4,0.19497,152,116.4,278.19,0.19497,cubic,0,4.1767131,H1a
mp-1025276,Sm2AlNO3,Sm2AlNO3,167.56,274.24,111.73,0.22721,167.55,264.9,107.12,0.2365,167.55,109.42,269.59,0.23184,tetragonal,1.3154,7.622901717,H1a
mp-15657,TiCoSi,TiCoSi,185.67,262.48,103.8,0.26438,185.63,255.03,100.33,0.27102,185.65,102.06,258.77,0.26769,hexagonal,0,5.759345734,H4
mp-2199,Fe3Si,Fe3Si,212,270.36,105,0.28745,212,212.74,79.814,0.33275,212,92.407,242.05,0.30971,cubic,0,7.388613931,H1a
mp-573995,Ho(CoB)2,Ho(CoB)2,171,278.21,113.2,0.22884,160.48,262.86,107.11,0.22701,165.74,110.16,270.53,0.22795,tetragonal,0,8.637263364,H4
mp-1007974,CrNi3,CrNi3,193.33,271,107,0.26638,193.33,236.53,91.246,0.2961,193.33,99.123,253.97,0.28106,cubic,0,8.504336224,H1a