Material_ID,Formula,pretty_formula,KV ,EV ,GV ,PV ,KR ,ER ,GR ,PR ,bulk,shear,young,poisson,csyst,gap,density,y_cla
mp-505804,Ti2CuSb3,Ti2CuSb3,92.778,131.58,52.067,0.26362,92.73,121.18,47.256,0.28219,92.754,49.661,126.42,0.27284,tetragonal,0,7.26023017,H4
mp-2130,LuNi2,LuNi2,109,125.57,48,0.308,109,106.13,39.667,0.33773,109,43.833,115.96,0.3227,cubic,0,11.05706072,H1a
mp-581754,Eu(PPd)2,Eu(PPd)2,99,128.39,50,0.28386,93.88,119.76,46.513,0.28739,96.44,48.256,124.07,0.28558,tetragonal,0,8.134599629,H4
mp-644500,Zn7Mo,Zn7Mo,101.67,129.32,50.2,0.28801,101.67,111.96,42.523,0.31646,101.67,46.362,120.73,0.30208,cubic,0,7.694506313,H1a
mp-863723,Ho2MgGe2,Ho2MgGe2,76.667,140.87,59,0.19377,75.937,130.96,53.999,0.21258,76.302,56.5,135.94,0.20306,tetragonal,0,7.387174775,H4
mp-9971,YGe,YGe,82.111,140.58,57.867,0.21466,81.717,124.86,50.13,0.24535,81.914,53.998,132.81,0.22978,orthorhombic,0,5.830799969,H4
mp-865049,HfMgPd2,HfMgPd2,127.67,110.13,40.6,0.35623,127.67,96.244,35.014,0.37435,127.67,37.807,103.23,0.36523,cubic,0,9.954600977,H1a
mp-1654,CeNi2,CeNi2,121.33,109.09,40.4,0.35015,121.33,106.04,39.149,0.35434,121.33,39.774,107.57,0.35224,cubic,0,9.264253029,H1a
mp-9289,ZrSnTe,ZrSnTe,81.889,135.48,55.333,0.22425,81.886,130.07,52.649,0.23526,81.888,53.991,132.79,0.22973,tetragonal,0,7.53513952,H4
mp-861662,CaZrRh2,CaZrRh2,120,108.49,40.2,0.34933,120,108.36,40.147,0.3495,120,40.174,108.42,0.34941,cubic,0,7.490033422,H1a
mp-983539,BeAu3,BeAu3,145,98.208,35.4,0.38712,145,83.67,29.801,0.40383,145,32.6,90.982,0.39542,cubic,0,15.42940832,H1a
mp-2063,Pr2O3,Pr2O3,125.67,135.7,51.4,0.32003,116.57,78.256,28.188,0.38811,121.12,39.794,107.6,0.35194,trigonal,3.8774,6.776779181,H2
mp-12741,MgPd2,MgPd2,115,123.63,46.8,0.32083,114.87,99.638,36.755,0.35543,114.94,41.778,111.79,0.3379,orthorhombic,0,8.295582487,H4
mp-1753,ThAs,ThAs,102,142.87,56.4,0.26656,102,96.362,35.888,0.34255,102,46.144,120.29,0.30344,cubic,0,9.368761845,H1a
mp-4174,HoNiSb,HoNiSb,76.333,137.3,57.2,0.20021,76.333,134.13,55.555,0.20715,76.333,56.377,135.72,0.20367,cubic,0.3481,9.042786209,H5
mp-18949,VFeO4,VFeO4,94.222,131.19,51.733,0.26794,85.051,124.83,49.719,0.25538,89.637,50.726,128.03,0.26195,orthorhombic,0,3.782100363,H4
mp-10455,YTiGe,YTiGe,84.556,138.69,56.533,0.22663,84.479,123.29,49.05,0.25676,84.517,52.792,131.08,0.24151,tetragonal,0,5.451985881,H4
mp-18878,LiFeAs2O7,LiFeAs2O7,98.333,127.38,49.6,0.2841,93.794,120.57,46.888,0.28575,96.064,48.244,123.98,0.2849,monoclinic,2.648,4.028044604,H2
mp-972985,KPdO3,KPdO3,100,122.8,47.4,0.29534,100,120.07,46.186,0.29988,100,46.793,121.44,0.2976,cubic,0,4.766060398,H1a
mp-1014219,HfZn,HfZn,105,139.6,54.6,0.27841,105,95.603,35.455,0.34825,105,45.027,118.19,0.3124,cubic,0,11.23343354,H1a
mp-1096,CeS,CeS,87,148.73,61.2,0.21508,87,108.95,42.188,0.29128,87,51.694,129.44,0.25202,cubic,0,6.232433297,H1a
mp-620290,Sr2TlCuO5,Sr2TlCuO5,83.889,137.69,56.133,0.22645,77.555,128.48,52.49,0.22389,80.722,54.312,133.09,0.22521,tetragonal,0,6.807183418,H4
mp-2435,HoCo5,HoCo5,138.56,105.79,38.533,0.37274,131.34,89.468,32.265,0.38647,134.95,35.399,97.658,0.37939,hexagonal,0,9.268919768,H4
mp-18903,Sr2CdWO6,Sr2CdWO6,106.67,127.48,49,0.30081,106.67,106.06,39.744,0.33428,106.67,44.372,116.91,0.31734,cubic,3.6141,6.462998547,H2
mp-762391,Li2(NiO2)3,Li2(NiO2)3,100.56,144.95,57.533,0.25974,88.963,103.55,39.645,0.306,94.759,48.589,124.49,0.28104,monoclinic,0,4.589472073,H4
mp-22700,V3Se4,V3Se4,81.333,135.85,55.6,0.22163,79.044,130.29,53.167,0.22528,80.189,54.384,133.07,0.22343,monoclinic,0,6.149351375,H4
mp-862379,Sc2TcAg,Sc2TcAg,109.33,114.99,43.4,0.32472,109.33,114.77,43.31,0.32504,109.33,43.355,114.88,0.32488,cubic,0,6.685144957,H1a
mp-5934,Yb(CuSi)2,Yb(CuSi)2,77.333,137.27,57,0.20415,76.632,132.29,54.562,0.21228,76.982,55.781,134.79,0.20819,tetragonal,0,7.407962214,H4
mp-22580,ZrGaNi2,ZrGaNi2,152,86.027,30.6,0.40567,152,84.444,30,0.40741,152,30.3,85.236,0.40654,cubic,0,8.059961671,H1a
mp-863740,Pm2IrRu,Pm2IrRu,125,104.5,38.4,0.36067,125,103.96,38.182,0.36139,125,38.291,104.23,0.36103,cubic,0,11.19950893,H1a
mp-11444,YGa2Ni,YGa2Ni,95.889,132.83,52.333,0.26912,90.575,117.5,45.761,0.2838,93.232,49.047,125.19,0.27621,orthorhombic,0,6.824061205,H4
mp-246,TiF3,TiF3,103.67,149.2,59.2,0.26013,103.67,85.178,31.245,0.36306,103.67,45.223,118.44,0.30957,cubic,0,2.824345615,H1a
mp-2851,VSb2,VSb2,98.333,136.08,53.6,0.26936,97.655,107.52,40.838,0.31649,97.994,47.219,122.05,0.29242,tetragonal,0,7.992845534,H4
mp-12008,ErCdCu4,ErCdCu4,89.333,128.96,51.2,0.2594,89.333,125.88,49.749,0.26515,89.333,50.474,127.42,0.26227,cubic,0,9.556813336,H1a
mp-1025288,TbGa5Co,TbGa5Co,82.333,132.94,54,0.2309,82.242,130.24,52.683,0.23607,82.288,53.342,131.59,0.23347,tetragonal,0,7.769884084,H4
mp-15651,NiSe,NiSe,104,120.27,46,0.30726,103.68,116.19,44.24,0.31322,103.84,45.12,118.24,0.31023,trigonal,0,7.121002676,H2
mp-714969,MoO2,MoO2,89.667,136.58,54.8,0.24614,88.844,117.94,46.113,0.27876,89.255,50.457,127.37,0.26216,tetragonal,1.4083,4.634928778,H1a
mp-647924,Eu2O3,Eu2O3,107.11,123.16,47.067,0.30836,104.23,110.69,41.834,0.323,105.67,44.45,116.95,0.31554,monoclinic,0,7.559180819,H4
mp-777047,LiTmO2,LiTmO2,116,157.44,61.8,0.27379,100.64,69.901,25.249,0.38424,108.32,43.524,115.15,0.32282,trigonal,4.6352,7.196213809,H2
mp-29736,YAlGe,YAlGe,80.222,136.16,55.933,0.21713,80.106,129.09,52.413,0.23143,80.164,54.173,132.64,0.22423,orthorhombic,0,5.073594944,H4
mp-11022,ScAgO2,ScAgO2,126.56,136.59,51.733,0.32012,119.51,71.985,25.716,0.39961,123.03,38.725,105.14,0.35757,hexagonal,2.1455,5.387554022,H1b
mp-754502,SmYO2,SmYO2,100.22,128.47,49.933,0.28637,93.789,116.37,44.991,0.29322,97.006,47.462,122.42,0.28967,trigonal,0,5.777725255,H2
mp-19824,Ca(MnGe)2,Ca(MnGe)2,78.222,134.72,55.533,0.21296,77.936,132.73,54.571,0.21615,78.079,55.052,133.73,0.21455,tetragonal,0,5.539080594,H4
mp-30785,Mn3Pt,Mn3Pt,89.667,145.56,59.2,0.22943,89.667,107.27,41.237,0.30062,89.667,50.218,126.95,0.26402,cubic,0,10.15876297,H1a
mp-1688,ErAs,ErAs,79.667,138.85,57.4,0.20951,79.667,126.6,51.25,0.23514,79.667,54.325,132.79,0.22219,cubic,0,8.353027543,H1a
mp-1010136,Cu,Cu,186.56,145.08,52.933,0.37039,127.86,12.719,4.2869,0.48342,157.21,28.61,80.921,0.41421,tetragonal,0,8.886167119,H4
mp-989530,SrTcN3,SrTcN3,101.33,131.46,51.2,0.28378,97.017,110.14,42.015,0.31078,99.175,46.607,120.89,0.29685,monoclinic,0.6667,4.929288383,H4
mp-3799,GdSF,GdSF,89.333,128.12,50.8,0.26098,89.333,125.95,49.784,0.26501,89.333,50.292,127.04,0.26299,tetragonal,0,6.74756526,H4
mp-2052,ScAs,ScAs,84,135.84,55.2,0.23047,84,124.5,49.682,0.25298,84,52.441,130.22,0.24162,cubic,0,4.81322955,H1a
mp-14763,Ca3MnN3,Ca3MnN3,87.889,129.32,51.533,0.25476,87.856,126.42,50.16,0.26017,87.873,50.847,127.88,0.25746,orthorhombic,0,3.322379436,H4
mp-4856,HoGa5Co,HoGa5Co,88.889,128.3,50.933,0.25945,88.806,126.26,49.982,0.26304,88.848,50.458,127.28,0.26124,tetragonal,0,7.817097897,H4
mp-972058,YbTmO3,YbTmO3,101.33,139.29,54.8,0.2709,101.33,98.529,36.821,0.33795,101.33,45.81,119.43,0.30356,cubic,0,8.4856466,H1a
mp-5760,NdSF,NdSF,93.778,125.34,49.067,0.27724,93.719,123.1,48.045,0.28108,93.748,48.556,124.22,0.27916,tetragonal,1.236,5.936392816,H1a
mp-985825,Al3Cu,Al3Cu,93.667,127.77,50.2,0.27264,93.662,120.72,46.967,0.28518,93.665,48.583,124.27,0.27888,tetragonal,0,4.022425562,H4
mp-4896,Sm(SiPt)2,Sm(SiPt)2,139.33,143,53.8,0.32895,131.61,45.67,15.834,0.44217,135.47,34.817,96.209,0.38164,tetragonal,0,11.15296261,H4
mp-710,SmP,SmP,78.667,138.51,57.4,0.20654,78.667,127.7,51.935,0.22944,78.667,54.668,133.16,0.21789,cubic,0,6.137622282,H1a
mp-971996,SrHoO3,SrHoO3,97,131.49,51.6,0.27408,97,112.57,43.079,0.30658,97,47.339,122.15,0.29012,cubic,0,6.040663396,H1a
mp-1025242,ScGa5Co,ScGa5Co,91.667,126.92,50,0.26923,91.609,123.9,48.604,0.27459,91.638,49.302,125.41,0.2719,tetragonal,0,6.567414676,H4
mp-4681,NaNbO3,NaNbO3,88.667,137.14,55.2,0.24222,83.04,120.43,47.855,0.25829,85.854,51.527,128.81,0.24994,orthorhombic,2.3685,4.333350384,H2
mp-570460,LaCo5,LaCo5,131.78,100.66,36.667,0.37269,129.68,97.92,35.629,0.37415,130.73,36.148,99.292,0.37341,orthorhombic,0,8.253254236,H4
mp-4662,ScOF,ScOF,106.56,125.5,48.133,0.3037,100.86,109.6,41.55,0.3189,103.71,44.842,117.58,0.31104,monoclinic,4.5752,3.462907547,H2
mp-20175,Sc2InC,Sc2InC,81.778,135.32,55.267,0.22422,81.195,127.18,51.325,0.23894,81.486,53.296,131.27,0.23151,hexagonal,0,4.804792924,H4
mp-4180,Ca2SiO4,Ca2SiO4,96.889,127.84,49.933,0.28009,95.094,117.04,45.192,0.29488,95.991,47.562,122.46,0.28737,monoclinic,4.6781,3.219774944,H2
mp-5268,U2SbN2,U2SbN2,100.78,138.03,54.267,0.27173,95.593,103.58,39.254,0.3194,98.185,46.761,121.06,0.2945,tetragonal,0,11.26767718,H4
mp-19726,Sc3InB,Sc3InB,79,133.13,54.6,0.21914,79,132.02,54.042,0.22147,79,54.321,132.58,0.2203,cubic,0,4.195806089,H1a
mp-635966,MoO2,MoO2,89.556,135.58,54.333,0.24768,88.367,117.6,46.004,0.27819,88.961,50.168,126.69,0.26265,orthorhombic,1.3773,4.635146565,H2
mp-7352,MgCuP,MgCuP,94,126.98,49.8,0.27486,93.841,120.14,46.687,0.28663,93.92,48.244,123.57,0.28071,orthorhombic,0.0427,4.410198191,H2
mp-850878,Fe4O5F3,Fe4O5F3,109.89,159.38,63.333,0.25827,52.294,101.92,43.364,0.17517,81.091,53.349,131.26,0.23022,orthorhombic,0.1334,4.390189236,H2
mp-569151,MnGaPt,MnGaPt,132.67,112.5,41.4,0.35867,112.14,96.914,35.736,0.35596,122.4,38.568,104.71,0.35743,hexagonal,0,11.67155877,H4
mp-927,CuP2,CuP2,89.778,132.16,52.667,0.25466,88.513,120.72,47.425,0.2727,89.146,50.046,126.47,0.26355,monoclinic,0.9645,4.285587466,H4
mp-4964,YSbPt,YSbPt,96.667,121.78,47.2,0.29004,96.667,121.73,47.179,0.29011,96.667,47.19,121.76,0.29007,cubic,0.1098,9.264815137,H5
mp-232,DyRh,DyRh,115,110.89,41.4,0.33929,115,108.51,40.408,0.34273,115,40.904,109.71,0.34101,cubic,0,10.919238,H1a
mp-19773,GdGa2,GdGa2,79.889,132.48,54.133,0.22362,79.849,131.31,53.556,0.22592,79.869,53.845,131.89,0.22477,hexagonal,0,7.536446113,H4
mp-1029474,Ca7SiN6,Ca7SiN6,79.667,133.74,54.8,0.22022,79.236,130.36,53.174,0.22579,79.451,53.987,132.05,0.22299,orthorhombic,1.8303,3.004270534,H2
mp-10886,Al3Cu2,Al3Cu2,102.33,136.03,53.2,0.27846,102.33,99.109,37.02,0.33858,102.33,45.11,117.99,0.30783,trigonal,0,4.630631528,H2
mp-975443,InCuO3,InCuO3,122.33,106.25,39.2,0.35524,122.33,102.9,37.837,0.35981,122.33,38.518,104.58,0.35752,cubic,0,6.919102679,H1a
mp-12794,Al2Cu,Al2Cu,89.778,131.32,52.267,0.25622,89.598,120.52,47.233,0.27581,89.688,49.75,125.96,0.26593,tetragonal,0,4.00461318,H4
mp-643002,Mg2H6Os,Mg2H6Os,78,132.81,54.6,0.21622,78,132.79,54.59,0.21626,78,54.595,132.8,0.21624,cubic,3.4486,5.456167141,H2
mp-19069,NiAgO2,NiAgO2,133.22,128.4,47.933,0.33937,119.79,74.011,26.489,0.39703,126.51,37.211,101.66,0.36606,trigonal,0,6.855811404,H2
mp-545974,AlPO4,AlPO4,121.22,107.46,39.733,0.35226,121.22,103.12,37.963,0.35821,121.22,38.848,105.3,0.35523,hexagonal,5.3246,1.884749436,H1b
mp-1009087,BeSiAs2,BeSiAs2,73.556,138.41,58.333,0.18638,73.542,131.86,54.889,0.20117,73.549,56.611,135.16,0.19373,tetragonal,1.0226,4.004123885,H1a
mp-552663,LiScAs2O7,LiScAs2O7,96.444,127.17,49.667,0.28024,93.995,117.63,45.544,0.29142,95.22,47.605,122.42,0.28573,monoclinic,3.4715,3.642528541,H2
mp-754009,ScBiO3,ScBiO3,102,126.26,48.8,0.29369,94.044,114.83,44.284,0.2965,98.022,46.542,120.55,0.29503,trigonal,3.2425,7.084729769,H2
mp-981233,UCr3,UCr3,162.56,77.648,27.333,0.42039,162.55,74.113,26.023,0.42401,162.55,26.678,75.883,0.4222,cubic,0,11.52184745,H1a
mp-1939,ErNi2,ErNi2,108.67,118.16,44.8,0.31877,108.67,108.95,40.869,0.3329,108.67,42.835,113.58,0.3258,cubic,0,10.50343178,H1a
mp-11971,HoSnRh,HoSnRh,107.11,118.11,44.867,0.31622,106.37,111.28,41.974,0.32563,106.74,43.42,114.71,0.32089,hexagonal,0,10.14046692,H4
mp-1025136,EuAl3Cu2,EuAl3Cu2,77.778,134.83,55.667,0.21107,76.434,131.05,53.962,0.21425,77.106,54.814,132.94,0.21265,hexagonal,0,5.692752599,H4
mp-559435,CoF3,CoF3,94.778,140.5,56.067,0.25294,94.776,103.38,39.211,0.31821,94.777,47.639,122.41,0.28475,cubic,0,3.437649064,H1a
mp-3289,LaMgNi4,LaMgNi4,106,116.88,44.4,0.31623,106,113.19,42.81,0.32202,106,43.605,115.04,0.31912,cubic,0,7.317757555,H1a
mp-865974,TmNi2Sn,TmNi2Sn,160.33,77.233,27.2,0.41972,160.33,77.024,27.122,0.41993,160.33,27.161,77.128,0.41983,cubic,0,10.07643439,H1a
mp-20777,SmCoGe,SmCoGe,86.778,137.17,55.467,0.23654,81.813,120.09,47.829,0.25536,84.295,51.648,128.67,0.2456,orthorhombic,0,8.529139749,H4
mp-10027,TiSe,TiSe,88.667,133,53.2,0.25,79.492,124.54,50.264,0.23888,84.079,51.732,128.78,0.24472,hexagonal,0,5.924945169,H4
mp-568789,TiSe,TiSe,88.667,133,53.2,0.25,79.492,124.54,50.264,0.23888,84.079,51.732,128.78,0.24472,hexagonal,0,6.082365394,H4
mp-10186,PuSi2,PuSi2,97.556,131.45,51.533,0.27542,89.192,114.69,44.603,0.28569,93.374,48.068,123.08,0.2803,hexagonal,0,9.028298093,H4
mp-8640,Hf,Hf,101.33,126.15,48.8,0.29252,101.33,109.65,41.547,0.31965,101.33,45.173,117.99,0.30594,cubic,0,13.1722965,H1a
mp-864607,ZrCdPd2,ZrCdPd2,136.33,110.3,40.4,0.36515,136.33,77.364,27.523,0.40542,136.33,33.962,94.074,0.385,cubic,0,9.548325671,H1a
mp-571,TiNi,TiNi,159.67,93.669,33.4,0.40222,159.67,60.765,21.149,0.43657,159.67,27.275,77.416,0.41919,cubic,0,6.59815472,H1a
mp-1014229,Ti2Zn,Ti2Zn,97.444,159.66,65.067,0.22692,94.492,78.963,29.015,0.36072,95.968,47.041,121.3,0.28933,tetragonal,0,5.462441931,H4
mp-8670,Ca3CrN3,Ca3CrN3,86,128.17,51.2,0.25162,85.945,126.75,50.529,0.25421,85.972,50.864,127.46,0.25291,orthorhombic,0,3.241737327,H4
mp-1666,Th2S5,Th2S5,96.667,123.11,47.8,0.28774,96.54,118.65,45.806,0.29516,96.603,46.803,120.89,0.29144,orthorhombic,2.1159,6.928728998,H2
mp-9029,Ca3VN3,Ca3VN3,87.667,126.88,50.4,0.25877,87.522,126.06,50.026,0.25995,87.594,50.213,126.47,0.25936,orthorhombic,0.8536,3.133701586,H2
mp-191,YRh,YRh,108.67,113.97,43,0.3252,108.67,112.03,42.176,0.32817,108.67,42.588,113,0.32668,cubic,0,7.797624979,H1a
mp-631412,NbRu2Cl,NbRu2Cl,197.33,51.276,17.6,0.45669,197.33,48.185,16.509,0.4593,197.33,17.055,49.731,0.458,cubic,0,8.638308178,H1a
mp-10697,Sr(GeRh)2,Sr(GeRh)2,85.222,134.84,54.533,0.2363,78.302,124.76,50.531,0.23446,81.762,52.532,129.8,0.23542,tetragonal,0,7.433118022,H4
mp-982511,HoGa2Pd,HoGa2Pd,96,127.81,50,0.27811,92.701,116.42,45.102,0.29068,94.351,47.551,122.13,0.28425,orthorhombic,0,9.196483819,H4
mp-1766,TmS,TmS,102.67,143.87,56.8,0.26645,102.67,87.747,32.318,0.35755,102.67,44.559,116.78,0.31042,cubic,0,8.331173672,H1a
mp-978534,SiGe,SiGe,74.222,136.02,56.933,0.19456,74.21,131.82,54.746,0.20395,74.216,55.839,133.93,0.19924,hexagonal,0.4089,3.821754689,H1a
mp-22036,ZrSbPd,ZrSbPd,129,103.31,37.8,0.36653,127.84,95.329,34.647,0.37572,128.42,36.223,99.331,0.37109,orthorhombic,0,8.815969615,H4
mp-22179,YTiSi,YTiSi,89.333,129.39,51.4,0.25861,89.222,120.97,47.477,0.27402,89.278,49.438,125.2,0.26626,tetragonal,0,4.422838704,H4
mp-10322,BaHfN2,BaHfN2,107.44,127.3,48.867,0.30253,101.62,103.45,38.88,0.33034,104.53,43.873,115.47,0.3159,tetragonal,1.2674,7.810629874,H1a
mp-569310,Sr(POs)2,Sr(POs)2,93.444,150.43,61.067,0.23169,73.924,106.47,42.251,0.25996,83.684,51.659,128.53,0.24402,tetragonal,0,9.306179416,H4
mp-1696,CdPd,CdPd,109.56,122.29,46.533,0.31397,109.55,101.75,37.82,0.3452,109.55,42.177,112.14,0.3294,tetragonal,0,10.30751292,H4
mp-578606,NaCuO2,NaCuO2,74.667,142.34,60.2,0.18227,63.008,130.72,56.627,0.15422,68.837,58.414,136.6,0.16927,trigonal,0,4.666418169,H2
mp-16501,HfAlPd2,HfAlPd2,163.67,79.468,28,0.41908,163.67,68.645,24,0.4301,163.67,26,74.077,0.42456,cubic,0,10.44984768,H1a
mp-14069,CsAlO2,CsAlO2,93,138.25,55.2,0.25224,93,106.59,40.714,0.30898,93,47.957,122.77,0.27998,cubic,4.2784,4.611662253,H2
mp-22229,TbInCu4,TbInCu4,90.333,126.64,50,0.26636,90.333,122.14,47.913,0.27464,90.333,48.957,124.4,0.27049,cubic,0,9.25776299,H1a
mp-510589,MnCuO2,MnCuO2,125.44,128.34,48.267,0.32949,98.021,92.719,34.536,0.34235,111.73,41.401,110.55,0.3351,monoclinic,0.1654,5.17648711,H4
mp-29596,Ca3AlN3,Ca3AlN3,93.444,127.87,50.267,0.27193,92.925,117.31,45.483,0.2896,93.185,47.875,122.62,0.28068,monoclinic,2.8834,3.016464725,H2
mp-19886,ThSnPt,ThSnPt,108.33,114.86,43.4,0.32329,108.33,110.77,41.656,0.32958,108.33,42.528,112.82,0.32643,cubic,0.8812,11.42809237,H5
mp-961705,TiPtPb,TiPtPb,112.67,8.331,2.8,0.48768,112.67,192.71,79.31,0.21492,112.67,41.055,109.83,0.33754,cubic,0,11.56202379,H1a
mp-7349,Ba(BRh)2,Ba(BRh)2,93.556,147.75,59.733,0.23678,80.947,104.12,40.493,0.28563,87.251,50.113,126.18,0.25897,tetragonal,0,6.763416271,H4
mp-19928,Hf2CuSb3,Hf2CuSb3,96.111,126.23,49.267,0.2811,96.034,115.05,44.237,0.30034,96.073,46.752,120.68,0.29065,tetragonal,0,9.922904424,H4
mp-631269,LiIrRh,LiIrRh,132.67,109.04,40,0.36301,132.67,82.693,29.615,0.39611,132.67,34.808,96.025,0.37937,cubic,0,11.89577031,H1a
mp-20897,Ba4Y2Cu6O13,Ba4Y2Cu6O13,102.67,129.94,50.4,0.28906,86.391,113.16,44.143,0.2817,94.529,47.271,121.55,0.28569,orthorhombic,0,6.049593917,H4
mp-22740,CeCuSi,CeCuSi,91.444,130.43,51.667,0.26227,89.374,117.72,45.968,0.28047,90.409,48.817,124.11,0.2712,hexagonal,0,6.48721561,H4
mp-20791,MnVAs,MnVAs,106.89,73.005,26.333,0.38617,106.1,150.81,59.697,0.2631,106.49,43.015,113.73,0.322,tetragonal,0,6.895854374,H4
mp-2551,DyCo5,DyCo5,138.56,103.78,37.733,0.37517,134.05,82.641,29.573,0.39725,136.3,33.653,93.282,0.38594,hexagonal,0,9.172468336,H4
mp-600428,Mn3Sn2,Mn3Sn2,76.444,135.16,56.067,0.20533,72.752,131.29,54.74,0.19922,74.598,55.404,133.23,0.20234,orthorhombic,0,7.81160241,H4
mp-16733,Sc2GaC,Sc2GaC,85.778,131.57,52.867,0.24436,85.45,122.26,48.455,0.26154,85.614,50.661,126.94,0.25288,hexagonal,0,4.090728722,H4
mp-2797,YCu5,YCu5,109.22,112.47,42.333,0.32838,108.7,111.67,42.021,0.32878,108.96,42.177,112.07,0.32858,hexagonal,0,7.535186104,H4
mp-24650,YH2,YH2,69,140.63,60.6,0.16031,69,131.49,55.603,0.18239,69,58.101,136.1,0.17125,cubic,0,4.262590537,H1a
mp-867117,Sc2CuPt,Sc2CuPt,112.67,113.02,42.4,0.33281,112.67,106.07,39.488,0.34309,112.67,40.944,109.56,0.33793,cubic,0,8.253526844,H1a
mp-977367,CdInRh2,CdInRh2,139.67,127.26,47.2,0.34813,139.67,52.025,18.09,0.43792,139.67,32.645,90.857,0.39158,cubic,0,10.6073681,H1a
mp-2684,TbGa2,TbGa2,78.222,133.15,54.733,0.21631,75.955,130.32,53.674,0.21403,77.088,54.204,131.74,0.21519,hexagonal,0,7.760867581,H4
mp-7478,RbTmO2,RbTmO2,84.667,136.44,55.4,0.23142,82.972,118.92,47.148,0.26113,83.819,51.274,127.77,0.24594,trigonal,3.6837,7.051533224,H2
mp-754883,KHoO2,KHoO2,84.778,136.2,55.267,0.23224,81.467,119.88,47.769,0.25476,83.123,51.518,128.09,0.24317,trigonal,3.9742,6.040057733,H2
mp-865994,YbScRh2,YbScRh2,109.33,112.17,42.2,0.32901,109.33,110.76,41.603,0.33116,109.33,41.901,111.46,0.33008,cubic,0,10.04476282,H1a
mp-570899,YbNi2Sn,YbNi2Sn,95,121.92,47.4,0.2861,95,119.59,46.345,0.29019,95,46.873,120.76,0.28814,cubic,0,10.51117693,H1a
mp-865872,LiZr2Re,LiZr2Re,124,104.42,38.4,0.35965,124,98.26,35.915,0.36793,124,37.158,101.35,0.36378,cubic,0,8.504158873,H1a
mp-29809,Ca2GeN2,Ca2GeN2,77.556,131.35,53.933,0.21773,77.368,131,53.784,0.21781,77.462,53.859,131.17,0.21777,tetragonal,0,3.755028452,H4
mp-14625,NdCoGe3,NdCoGe3,82.111,128.95,52.067,0.23827,81.919,128.13,51.694,0.23932,82.015,51.88,128.54,0.23879,tetragonal,0,7.536983184,H4
mp-5637,SrZnO2,SrZnO2,90.667,129.27,51.2,0.26238,89.279,118.15,46.171,0.27944,89.973,48.686,123.74,0.27079,orthorhombic,2.6565,5.370846708,H2
mp-313,YC2,YC2,117.78,163.13,64.267,0.26916,107.17,49.19,17.278,0.4235,112.47,40.772,109.13,0.33829,tetragonal,0,4.447058271,H4
mp-3264,Th(NiGe)2,Th(NiGe)2,125.67,110.94,41,0.35287,125.34,89.214,32.292,0.38137,125.5,36.646,100.19,0.36695,tetragonal,0,9.654297403,H4
mp-1029293,CsVN2,CsVN2,104.33,119.86,45.8,0.30853,104.33,109.03,41.119,0.32582,104.33,43.46,114.48,0.31712,cubic,0.5043,4.742624094,H5
mp-672374,UNi2Sn,UNi2Sn,98,121.12,46.8,0.29401,98,116.02,44.531,0.30269,98,45.666,118.58,0.29834,cubic,0,11.70725071,H1a
mp-569779,ScSbPd,ScSbPd,96.667,121.78,47.2,0.29004,96.667,117.07,45.092,0.29815,96.667,46.146,119.43,0.29408,cubic,0.078,6.997261969,H5
mp-997012,CuPdO2,CuPdO2,175.33,101.61,36.2,0.40342,136.34,55.369,19.328,0.43232,155.84,27.764,78.623,0.41591,orthorhombic,0,6.918832806,H4
mp-19017,LiFePO4,LiFePO4,91.333,124.7,49,0.27245,90.56,121.16,47.437,0.27703,90.947,48.218,122.93,0.27472,orthorhombic,3.9209,3.470895938,H2