Material_ID,Formula,pretty_formula,KV ,EV ,GV ,PV ,KR ,ER ,GR ,PR ,bulk,shear,young,poisson,csyst,gap,density,y_cla
mp-569516,HfNi5,HfNi5,168.67,220.96,86.2,0.28166,168.67,219.12,85.362,0.28348,168.67,85.781,220.04,0.28257,cubic,0,10.60699679,H1a
mp-1840,TiO2,TiO2,191.44,207.57,78.667,0.3193,191.07,203.24,76.828,0.32271,191.26,77.747,205.41,0.321,orthorhombic,2.2882,4.006089637,H2
mp-3183,DyBRh3,DyBRh3,175.33,223.07,86.6,0.28795,175.33,208.39,80.031,0.30191,175.33,83.315,215.77,0.2949,cubic,0,10.74609577,H1a
mp-32777,WO3,WO3,164.22,243.41,97.133,0.25297,160.03,204.01,79.225,0.28753,162.13,88.179,223.94,0.26979,hexagonal,1.2338,6.130679084,H1a
mp-758371,YbAlO3,YbAlO3,170.78,222.82,86.867,0.28254,170.77,214.02,82.88,0.29113,170.78,84.873,218.43,0.28682,cubic,0,8.063769632,H1a
mp-755920,Ti3NO4,Ti3NO4,192.67,212.67,80.8,0.31603,188.68,198.08,74.746,0.32503,190.67,77.773,205.39,0.32047,orthorhombic,0,3.958790682,H4
mp-10257,Ni,Ni,196.89,207.48,78.333,0.32436,196.89,194.94,73.012,0.33498,196.89,75.673,201.24,0.32965,hexagonal,0,9.032894531,H4
mp-1008728,Ni,Ni,196.89,207.48,78.333,0.32436,196.89,194.94,73.012,0.33498,196.89,75.673,201.24,0.32965,cubic,0,8.973394366,H1a
mp-214,ZrRu,ZrRu,182.67,216.7,83.2,0.30228,182.67,204.42,77.817,0.31348,182.67,80.508,210.59,0.30786,cubic,0,9.029376954,H1a
mp-977407,Hf2ReRh,Hf2ReRh,150.33,231.72,93.2,0.24311,150.33,229.58,92.163,0.24548,150.33,92.682,230.65,0.24429,cubic,0,15.30780978,H1a
mp-18732,TiNiO3,TiNiO3,179.67,216.22,83.2,0.29942,175.35,211.44,81.384,0.29903,177.51,82.292,213.83,0.29923,trigonal,2.7244,4.948071871,H2
mp-1463,LaIr2,LaIr2,242.67,182.55,66.4,0.37462,242.67,156.57,56.219,0.39247,242.67,61.31,169.64,0.38349,cubic,0,14.96894563,H1a
mp-2059,NbAs,NbAs,163.78,235.16,93.267,0.26069,159.74,212.02,82.9,0.27878,161.76,88.084,223.65,0.26956,tetragonal,0,7.805231804,H4
mp-1009695,CaB2,CaB2,120.67,248.12,107.2,0.15729,120.2,245,105.58,0.1603,120.44,106.39,246.56,0.15879,hexagonal,0,2.794106807,H4
mp-5386,Er(SiRh)2,Er(SiRh)2,161.67,227.31,89.8,0.26566,161.63,219.75,86.283,0.27341,161.65,88.041,223.54,0.26952,tetragonal,0,8.706953107,H4
mp-972241,Ti2ReTc,Ti2ReTc,191.67,206.98,78.4,0.32002,191.67,201.57,76.082,0.32472,191.67,77.241,204.28,0.32236,cubic,0,10.41810694,H1a
mp-22636,TaNiGe,TaNiGe,199.67,208.45,78.6,0.326,198.18,190.36,71.036,0.33991,198.92,74.818,199.45,0.33289,orthorhombic,0,12.08766122,H4
mp-1425,TiCr2,TiCr2,199,199.89,75,0.33259,199,198.66,74.483,0.33362,199,74.741,199.28,0.3331,cubic,0,6.237410564,H1a
mp-5219,Ho(SiOs)2,Ho(SiOs)2,171.78,219.93,85.467,0.28662,171.71,214.18,82.882,0.2921,171.74,84.174,217.06,0.28935,tetragonal,0,11.87023968,H4
mp-865010,HfGaRu2,HfGaRu2,196,202.37,76.2,0.32791,196,200.13,75.247,0.32982,196,75.724,201.25,0.32887,cubic,0,12.05564708,H1a
mp-1007852,FeCo3,FeCo3,183,225.3,87,0.29481,183,193.99,73.297,0.32332,183,80.149,209.82,0.30891,cubic,0,8.694918804,H1a
mp-505822,TiSiRu,TiSiRu,194.89,212.81,80.733,0.318,188.24,195.52,73.676,0.32689,191.56,77.205,204.18,0.32235,orthorhombic,0,6.707820942,H4
mp-19328,NaWO3,NaWO3,191.33,228.46,87.8,0.301,191.33,179.35,66.735,0.34377,191.33,77.268,204.3,0.32204,cubic,0,6.764876751,H1a
mp-29154,Hf2CoP,Hf2CoP,166.67,227.52,89.4,0.27248,165.42,213.36,83.018,0.28503,166.04,86.209,220.47,0.2787,monoclinic,0,11.44378767,H4
mp-7964,YAlO3,YAlO3,203.78,217.53,82.267,0.32209,198.4,177.28,65.605,0.35108,201.09,73.936,197.59,0.33623,hexagonal,3.5561,4.496849927,H1b
mp-5976,Dy(CoSi)2,Dy(CoSi)2,145.22,237.47,96.733,0.22746,144.96,228.24,92.211,0.23758,145.09,94.472,232.87,0.23249,tetragonal,0,7.613445945,H4
mp-15780,MgPPt5,MgPPt5,198.11,209.82,79.267,0.32349,197.34,189.49,70.708,0.33996,197.73,74.987,199.71,0.33166,tetragonal,0,15.65837803,H4
mp-419,YbB6,YbB6,154.67,276.48,115,0.20207,154.67,173.34,66,0.31321,154.67,90.5,227.19,0.25518,cubic,0.1059,5.614593733,H5
mp-862715,Al2PdRu,Al2PdRu,177.67,219.93,85,0.29369,177.67,205.51,78.605,0.30722,177.67,81.803,212.76,0.30042,cubic,0,7.836060882,H1a
mp-2105,Hf3Si2,Hf3Si2,145.78,240.71,98.267,0.22479,143.95,224.95,90.737,0.23955,144.86,94.502,232.87,0.23208,tetragonal,0,10.82743852,H4
mp-12427,Sr2TaGaO6,Sr2TaGaO6,150.78,231.56,93.067,0.24404,150.69,227.21,90.977,0.24871,150.74,92.022,229.39,0.24637,tetragonal,4.0487,6.841673538,H4
mp-1719,PuN,PuN,154,228.49,91.2,0.25271,154,226.28,90.142,0.25511,154,90.671,227.39,0.25391,cubic,0,14.20341763,H1a
mp-3097,Tb(SiRh)2,Tb(SiRh)2,156.78,229.72,91.467,0.25578,156.55,221.82,87.754,0.26385,156.66,89.611,225.78,0.2598,tetragonal,0,8.414759262,H4
mp-865465,VCo2Ge,VCo2Ge,200.67,223.45,85,0.31441,200.67,170.45,62.739,0.35843,200.67,73.87,197.39,0.33606,cubic,0,8.331148437,H1a
mp-999542,MnFe3,MnFe3,176.78,257.2,102.27,0.25751,162.3,176.76,67.032,0.31848,169.54,84.649,217.71,0.28597,tetragonal,0,8.11437724,H4
mp-568636,TiCr2,TiCr2,197.89,200.08,75.133,0.33149,197.88,198.22,74.35,0.33305,197.89,74.741,199.15,0.33227,hexagonal,0,6.234565538,H4
mp-10240,ScNiP,ScNiP,151.44,229.66,92.067,0.24725,151.28,227.85,91.213,0.24898,151.36,91.64,228.75,0.24812,orthorhombic,0,5.32201833,H4
mvc-13158,CaVO3,CaVO3,167.22,220.97,86.333,0.27976,166.69,217.35,84.724,0.28268,166.96,85.529,219.16,0.28122,monoclinic,0.2587,4.107538896,H4
mp-19281,LaCrO3,LaCrO3,166.33,222.25,87,0.2773,164.3,218.06,85.26,0.2788,165.32,86.13,220.16,0.27805,orthorhombic,2.3706,6.457324788,H2
mp-3895,Ho(SiRh)2,Ho(SiRh)2,160.78,226.83,89.667,0.26486,160.55,219.19,86.128,0.27246,160.66,87.898,223.02,0.26865,tetragonal,0,8.620254238,H4
mp-862288,AlFe2W,AlFe2W,232,219.11,81.6,0.34259,232,129.85,46.154,0.40672,232,63.877,175.52,0.37391,cubic,0,10.59554721,H1a
mvc-11155,AlNiO3,AlNiO3,187.44,223.93,86.067,0.30089,187.44,186.95,70.081,0.33378,187.44,78.074,205.67,0.31713,cubic,0,4.529178568,H1a
mp-20949,MnSiNi,MnSiNi,166.44,228.48,89.867,0.27122,162.34,212.27,82.785,0.28207,164.39,86.326,220.4,0.27655,orthorhombic,0,6.56097192,H4
mp-4408,Sm2Zr2O7,Sm2Zr2O7,161.67,222.16,87.4,0.27096,161.67,221.95,87.302,0.27118,161.67,87.351,222.06,0.27107,cubic,3.1936,6.419635185,H2
mp-11573,TiTc,TiTc,206.67,200.24,74.8,0.33851,206.67,185.06,68.504,0.35076,206.67,71.652,192.69,0.34461,cubic,0,8.076825091,H1a
mp-4419,NaNbO3,NaNbO3,137.56,252.12,105.53,0.19452,127.89,224.93,93.187,0.20687,132.72,99.36,238.55,0.20044,tetragonal,1.604,4.360939292,H1a
mp-984712,Cr3Se,Cr3Se,183.56,114.82,41.133,0.39574,180.43,291.52,118.43,0.23072,181.99,79.783,208.83,0.30875,tetragonal,0,7.849020041,H4
mp-1016874,SiHgO3,SiHgO3,219.33,257.25,98.6,0.30452,219.33,103.55,36.429,0.42131,219.33,67.514,183.69,0.36041,cubic,0,9.333758081,H1a
mp-1959,PuO2,PuO2,191.33,216.17,82.4,0.3117,191.33,188.8,70.682,0.33554,191.33,76.541,202.61,0.32351,cubic,0,11.74128896,H1a
mp-582028,Mn3RhN,Mn3RhN,199,198.47,74.4,0.33378,199,195.97,73.348,0.33587,199,73.874,197.22,0.33483,cubic,0,7.877935713,H1a
mp-30835,TaPd2,TaPd2,206.67,220.07,83.2,0.32253,203.19,165.45,60.635,0.36429,204.93,71.917,193.16,0.34291,orthorhombic,0,13.64678757,H4
mp-973149,Mn3Al,Mn3Al,186.67,221.4,85,0.30233,186.67,188.84,70.917,0.3314,186.67,77.958,205.3,0.3167,cubic,0,6.821163673,H1a
mp-11388,GaIr,GaIr,217,185.69,68.4,0.35738,217,183.58,67.542,0.359,217,67.971,184.64,0.35819,cubic,0,15.17358645,H1a
mp-24154,NbH2,NbH2,178.67,210.65,80.8,0.3035,178.67,209.88,80.464,0.30421,178.67,80.632,210.26,0.30386,cubic,0,6.584074712,H1a
mp-570751,Nb3Te,Nb3Te,167,219.76,85.8,0.28067,167,215.55,83.882,0.28488,167,84.841,217.66,0.28277,cubic,0,9.049267623,H1a
mp-20192,HfMnSi,HfMnSi,162.56,240.07,95.733,0.25386,162.4,199.79,77.143,0.29496,162.48,86.438,220.26,0.27407,orthorhombic,0,9.599635789,H4
mp-2053,Nb3Sb,Nb3Sb,174,217.07,84,0.29208,174,208.81,80.311,0.29999,174,82.156,212.95,0.29602,cubic,0,8.873377607,H1a
mp-12101,Lu(SiOs)2,Lu(SiOs)2,182.11,211.32,80.867,0.3066,182.07,203.98,77.659,0.31328,182.09,79.263,207.66,0.30993,tetragonal,0,12.24546972,H4
mp-505527,Ti5Si4,Ti5Si4,142.22,233.37,95.133,0.22652,142.22,231.07,93.992,0.2292,142.22,94.562,232.22,0.22786,tetragonal,0,4.254735425,H4
mp-3717,LuBRh3,LuBRh3,164,228.25,90,0.26804,164,209.82,81.529,0.28677,164,85.765,219.1,0.27734,cubic,0,11.27384344,H1a
mp-3686,YbBRh3,YbBRh3,162,229.09,90.6,0.26431,162,211.45,82.441,0.28245,162,86.521,220.34,0.27332,cubic,0,11.22571645,H1a
mp-1002109,VCo,VCo,207,200.75,75,0.33836,207,180.77,66.733,0.35445,207,70.866,190.82,0.34636,cubic,0,7.516367747,H1a
mp-865255,LuNbRu2,LuNbRu2,183.33,212.26,81.2,0.30703,183.33,200.92,76.258,0.31735,183.33,78.729,206.61,0.31217,cubic,0,11.41067858,H1a
mp-571247,Al3Mo,Al3Mo,136,241.33,100.2,0.20425,134.96,230.07,94.609,0.21589,135.48,97.405,235.72,0.21002,monoclinic,0.1094,4.822353877,H4
mp-761556,MnCoO4,MnCoO4,176,235.05,92,0.27742,169.18,191.36,72.958,0.31148,172.59,82.479,213.44,0.29389,orthorhombic,0,5.340709105,H4
mp-10076,Hf3(NiGe)4,Hf3(NiGe)4,159.89,223.36,88.133,0.26717,159.44,219.7,86.472,0.27034,159.66,87.303,221.53,0.26875,orthorhombic,0,10.68058591,H4
mp-567749,Y(SiOs)2,Y(SiOs)2,166,220.01,86,0.27911,166,214.99,83.711,0.28414,166,84.855,217.51,0.28162,tetragonal,0,10.28898431,H4
mp-1007853,Fe3Ni,Fe3Ni,194,222.96,85.2,0.30845,194,174.96,64.814,0.34969,194,75.007,199.33,0.32875,cubic,0,8.090843653,H1a
mp-345,HfB,HfB,174.67,241.69,95.2,0.26938,174.67,180.89,68.136,0.3274,174.67,81.668,211.97,0.29774,cubic,0,11.10497865,H1a
mp-754434,Hf3N4,Hf3N4,220.78,258.08,98.867,0.30518,208.47,106.79,37.743,0.41463,214.62,68.305,185.26,0.35613,trigonal,1.1618,11.6008635,H2
mp-8231,ZrSO,ZrSO,168,216.88,84.4,0.28484,168,215.34,83.699,0.28637,168,84.05,216.11,0.28561,tetragonal,1.2234,5.483176193,H1a
mp-21040,Zr2Fe3Ge,Zr2Fe3Ge,158.11,226.23,89.667,0.26152,157.57,218.57,86.13,0.26881,157.84,87.898,222.41,0.26515,hexagonal,0,7.824573938,H4
mp-30851,Ti3Pt5,Ti3Pt5,202.33,202.63,76,0.33309,200.95,185.38,68.851,0.34625,201.64,72.425,194.04,0.33961,orthorhombic,0,14.80211152,H4
mp-5129,Y(CoSi)2,Y(CoSi)2,145,233.51,94.8,0.2316,144.92,226.51,91.372,0.2395,144.96,93.086,230.02,0.23554,tetragonal,0,5.928044803,H4
mp-973068,ScCuO3,ScCuO3,182,227.8,88.2,0.29139,182,185.45,69.708,0.33018,182,78.954,206.94,0.3105,cubic,0,5.012149144,H1a
mp-999133,TaPd,TaPd,204.33,219.77,83.2,0.32074,203.76,163.66,59.899,0.36614,204.05,71.549,192.19,0.34302,tetragonal,0,14.24104231,H4
mp-11460,HfTc,HfTc,192,206.09,78,0.3211,192,194.34,72.988,0.3313,192,75.494,200.24,0.32618,cubic,0,13.17873126,H1a
mp-3441,Y(SiRh)2,Y(SiRh)2,155.89,226.71,90.133,0.25762,155.63,219.99,86.994,0.26441,155.76,88.563,223.36,0.261,tetragonal,0,7.029303192,H4
mp-3834,BaZrO3,BaZrO3,148.67,229.22,92.2,0.24303,148.67,225.9,90.596,0.24675,148.67,91.398,227.56,0.24489,cubic,3.4102,5.958155802,H2
mp-1018804,MnS2,MnS2,118.44,258.01,113.47,0.13695,111.59,232.7,100.96,0.15246,115.02,107.21,245.39,0.14442,orthorhombic,0,4.668836559,H4
mp-3958,Er(SiOs)2,Er(SiOs)2,169.56,217.46,84.533,0.28624,169.53,211.84,81.998,0.29174,169.54,83.265,214.66,0.28898,tetragonal,0,11.98297848,H4
mp-1004526,WS,WS,181.56,223.12,86.133,0.29518,178.21,192.68,72.995,0.31981,179.88,79.564,208.02,0.30726,hexagonal,0,11.05651569,H4
mp-999192,SiNi,SiNi,192.33,247.36,96.2,0.28565,186.66,153.43,56.284,0.363,189.49,76.242,201.68,0.32262,orthorhombic,0,6.180283407,H4
mp-644311,CuPt,CuPt,197.33,210.96,79.8,0.32182,196.56,182.1,67.667,0.34559,196.94,73.734,196.66,0.33358,trigonal,0,15.3327607,H2
mp-30856,ZnPt3,ZnPt3,213.33,194.64,72.2,0.34794,213.33,176.26,64.692,0.3623,213.33,68.446,185.5,0.35508,cubic,0,17.71570749,H1a
mp-1664,V3Pd,V3Pd,197.33,204.41,77,0.32735,197.33,188.04,70.103,0.34118,197.33,73.552,196.27,0.33423,cubic,0,7.705176466,H1a
mp-1029652,Y3Si6N11,Y3Si6N11,142.89,237.97,97.333,0.22243,142.66,223.25,90.081,0.23918,142.78,93.707,230.66,0.23074,tetragonal,3.1206,4.024942801,H4
mp-19025,LaMnO3,LaMnO3,166,216.95,84.6,0.28218,166,216.14,84.235,0.28299,166,84.417,216.54,0.28259,cubic,0,6.544061475,H1a
mp-17413,Ti3Rh5,Ti3Rh5,205,199.59,74.6,0.33773,204.8,182.31,67.442,0.35164,204.9,71.021,191,0.34464,orthorhombic,0,9.261614977,H4
mp-1014257,Ti3ZnN,Ti3ZnN,147.67,230.59,93,0.23974,145.04,226.05,91.133,0.24024,146.35,92.067,228.32,0.23999,orthorhombic,0,5.378909605,H4
mp-3702,FeCuPt2,FeCuPt2,197.33,207.23,78.2,0.32498,197.2,184.61,68.681,0.34397,197.27,73.441,196,0.33441,tetragonal,0,15.02316836,H4
mp-1016823,BaGeO3,BaGeO3,124.33,252.69,108.8,0.16127,124.33,227.57,95.223,0.19494,124.33,102.01,240.31,0.17787,cubic,0,6.79256289,H1a
mp-2033,Ni3N,Ni3N,197,198.24,74.4,0.33228,196.98,193.91,72.577,0.33593,196.99,73.489,196.08,0.3341,hexagonal,0,8.019197168,H4
mp-4678,Zr2AlN,Zr2AlN,141.78,231.9,94.467,0.2274,141.69,229.8,93.44,0.22968,141.73,93.953,230.85,0.22854,hexagonal,0,5.58041333,H4
mp-8528,Tm(SiRh)2,Tm(SiRh)2,160.11,223.69,88.267,0.26715,160.03,216.15,84.775,0.27488,160.07,86.521,219.94,0.271,tetragonal,0,8.784402973,H4
mp-861975,PaO3,PaO3,250.89,164.99,59.333,0.39039,250.77,152.45,54.497,0.39868,250.83,56.915,158.74,0.39452,tetragonal,0,11.0711345,H4
mp-961696,MnCoSi,MnCoSi,190,204.44,77.4,0.32067,190,196.61,74.051,0.32754,190,75.725,200.53,0.32409,cubic,0,6.043484478,H1a
mp-13801,Tl2Pt2O7,Tl2Pt2O7,168.67,214.35,83.2,0.28819,168.67,214.33,83.188,0.28821,168.67,83.194,214.34,0.2882,cubic,0.8652,10.95983688,H5
mp-755313,Sc2O3,Sc2O3,176.56,213.32,82.133,0.29863,172.46,207.91,80.021,0.29908,174.51,81.077,210.61,0.29885,trigonal,4.1629,3.823625087,H2
mp-19809,MnCoSi,MnCoSi,162.56,223.93,88.133,0.27041,158.8,214.7,84.216,0.27467,160.68,86.175,219.32,0.27251,orthorhombic,0,6.54797778,H4
mp-1014261,IrO2,IrO2,191.89,251.96,98.333,0.28116,183.22,149.11,54.646,0.36436,187.55,76.49,202.01,0.32049,tetragonal,0,9.882715941,H4
mp-865030,HfScRu2,HfScRu2,178,213.7,82.2,0.2999,178,202.61,77.313,0.31029,178,79.756,208.18,0.30508,cubic,0,10.52003028,H1a
mp-12059,Sm(PRu)2,Sm(PRu)2,145.89,240.88,98.333,0.22481,132.09,222.93,91.461,0.21872,138.99,94.897,231.91,0.22191,tetragonal,0,8.469553956,H4
mvc-12484,CaTi2O4,CaTi2O4,158.33,222.74,88,0.26554,156.2,219.56,86.734,0.26572,157.26,87.367,221.15,0.26563,orthorhombic,0,4.30243737,H4
mp-2664,TiO,TiO,224.33,266.18,102.2,0.30224,224.33,77.883,27.003,0.44214,224.33,64.601,176.83,0.36863,cubic,0,5.375278809,H1a
mp-24722,HRh,HRh,217.33,186.21,68.6,0.3572,217.33,177.08,64.904,0.3642,217.33,66.752,181.66,0.36069,cubic,0,10.32197536,H1a
mp-11549,VPd2,VPd2,190.89,219.16,83.733,0.30865,189.71,180.32,67.203,0.34158,190.3,75.468,199.97,0.32486,orthorhombic,0,10.03663391,H4
mp-6754,TmNi2B2C,TmNi2B2C,195.44,207.62,78.467,0.32295,193.45,186.54,69.643,0.33928,194.45,74.055,197.14,0.33103,tetragonal,0,8.30926223,H4
mp-669918,VSnRh2,VSnRh2,189.11,209.11,79.467,0.31571,188.05,192.8,72.531,0.32912,188.58,75.999,201,0.32236,tetragonal,0,10.00895109,H4
mp-3336,LaGaO3,LaGaO3,178.33,209.69,80.4,0.30403,178.25,205.62,78.615,0.30774,178.29,79.508,207.66,0.30588,trigonal,3.3869,7.007147124,H2
mp-1018066,CrSnRh2,CrSnRh2,182.89,215.68,82.733,0.30345,180.13,195.35,74.036,0.31926,181.51,78.385,205.56,0.31125,tetragonal,0,10.14153056,H4
mp-24723,TaH2,TaH2,225.67,176.92,64.6,0.36934,225.67,174.41,63.599,0.37119,225.67,64.1,175.67,0.37026,cubic,0,12.98092789,H1a
mp-1555,V3Sb,V3Sb,178.33,211.5,81.2,0.30234,178.33,203.71,77.775,0.30962,178.33,79.487,207.62,0.30597,cubic,0,7.587411531,H1a
mp-29005,U(Cr3P2)2,U(Cr3P2)2,145.11,249.22,102.67,0.21375,143.96,206.96,82.099,0.26041,144.54,92.383,228.47,0.23655,hexagonal,0,7.845540146,H4
mp-863679,ErTaRu2,ErTaRu2,180.33,214.53,82.4,0.30173,180.33,197.66,75.021,0.31732,180.33,78.711,206.14,0.30948,cubic,0,13.17567428,H1a
mp-548,NbCr2,NbCr2,227.67,175.55,64,0.37149,227.67,172.5,62.785,0.37372,227.67,63.393,174.03,0.3726,cubic,0,7.767773551,H1a
mp-862602,ScAlCo2,ScAlCo2,147.67,226.48,91,0.24438,147.67,226.18,90.854,0.24472,147.67,90.927,226.33,0.24455,cubic,0,5.881790761,H1a
mp-7600,Th(FeSi)2,Th(FeSi)2,155.67,226.37,90,0.25763,152.4,218.53,86.649,0.26102,154.04,88.325,222.46,0.2593,tetragonal,0,8.501325712,H4
mp-2567,V3Si,V3Si,195.67,197.62,74.2,0.33167,195.67,193.8,72.589,0.33492,195.67,73.394,195.71,0.33329,cubic,0,5.77814219,H1a
mp-2108,Ti5Si3,Ti5Si3,139.67,233.12,95.4,0.22181,138.06,229.47,93.818,0.22298,138.86,94.609,231.3,0.22239,hexagonal,0,4.347039406,H4
mp-770618,MgMnO3,MgMnO3,157.11,223.03,88.267,0.2634,155.29,219.14,86.632,0.26479,156.2,87.45,221.09,0.26409,trigonal,1.9195,4.176192536,H2
mp-867221,Ce3(TaN3)2,Ce3(TaN3)2,168.67,218.32,85,0.28426,164.37,210.79,81.939,0.28627,166.52,83.469,214.56,0.28525,tetragonal,0,9.019804164,H4
mp-864921,MgZrIr2,MgZrIr2,178,213.7,82.2,0.2999,178,200.66,76.463,0.31212,178,79.332,207.21,0.30598,cubic,0,12.44632075,H1a
mp-7707,Zr(SiNi)2,Zr(SiNi)2,171.56,214.72,83.133,0.2914,170.02,208.93,80.658,0.29518,170.79,81.896,211.83,0.29328,tetragonal,0,6.370889092,H4
mp-776205,Hf2N2O,Hf2N2O,184.33,240.59,93.8,0.28247,162.72,178.9,67.933,0.31676,173.53,80.866,209.98,0.29832,monoclinic,1.2379,10.613437,H4
mp-861983,Ti2MnFe,Ti2MnFe,180.33,215.88,83,0.30048,180.33,195.07,73.905,0.31972,180.33,78.453,205.55,0.31003,cubic,0,6.549536628,H1a
mp-893,ZrSi,ZrSi,141.56,235.96,96.533,0.22218,141.27,222.95,90.117,0.23698,141.41,93.325,229.49,0.22953,orthorhombic,0,5.562650989,H4
mp-862679,TaZn2,TaZn2,151.78,223.48,89.067,0.25459,151.7,223.32,88.997,0.25465,151.74,89.032,223.4,0.25462,hexagonal,0,11.4985232,H4
mp-12561,TaAs2,TaAs2,135.56,238.34,98.733,0.20696,133.15,228,93.86,0.2146,134.35,96.297,233.18,0.21074,monoclinic,0,9.966510324,H4
mp-866088,Hf2CoTc,Hf2CoTc,170.33,215.54,83.6,0.2891,170.33,207.7,80.083,0.29677,170.33,81.841,211.63,0.29293,cubic,0,12.87493198,H1a
mp-20325,Ti3InC,Ti3InC,144.67,229.36,92.8,0.23576,144.67,225.03,90.684,0.24075,144.67,91.742,227.2,0.23825,cubic,0,5.857246845,H1a
mp-5475,NaTaN2,NaTaN2,145.89,263.59,109.93,0.19887,126.02,200.16,81.017,0.23528,135.95,95.475,232.1,0.21547,trigonal,1.3323,7.914573301,H2
mp-7006,SrNbO3,SrNbO3,173,222.21,86.4,0.28593,173,196.93,75.15,0.31028,173,80.775,209.69,0.29799,cubic,0,5.550147918,H1a
mp-864606,AcCuO3,AcCuO3,163.67,216.06,84.4,0.27998,163.67,214.96,83.898,0.2811,163.67,84.149,215.51,0.28054,cubic,0,9.160948734,H1a
mp-1014244,ZrZnN2,ZrZnN2,177.67,219.03,84.6,0.29453,177.29,194,73.617,0.31762,177.48,79.108,206.63,0.30596,trigonal,2.0033,6.05026858,H2
mp-715572,Fe2O3,Fe2O3,178.33,206.05,78.8,0.30743,178.33,206.05,78.799,0.30743,178.33,78.8,206.05,0.30743,monoclinic,1.8628,4.936946565,H4
mp-1014252,Hf3ZnN,Hf3ZnN,150.67,226.83,90.8,0.24908,149.45,220.55,87.934,0.25404,150.06,89.367,223.69,0.25155,orthorhombic,0,12.35518888,H4
mp-3323,SrZrO3,SrZrO3,153,228.25,91.2,0.25136,153,215.49,85.158,0.26526,153,88.179,221.91,0.25827,cubic,3.5794,5.092976319,H2
mp-18695,Fe15Co,Fe15Co,184,213.27,81.6,0.30682,184,190.87,71.911,0.32711,184,76.756,202.16,0.31689,cubic,0,8.075535897,H1a
mp-865262,TmTaRu2,TmTaRu2,180.33,210.45,80.6,0.3055,180.33,198.54,75.403,0.31651,180.33,78.001,204.52,0.31098,cubic,0,13.30404712,H1a
mp-757233,Gd2Zr2O7,Gd2Zr2O7,160.33,217.57,85.4,0.27383,160.33,216.85,85.068,0.27458,160.33,85.234,217.21,0.27421,cubic,2.7903,6.646099837,H2
mp-5556,U(SiRh)2,U(SiRh)2,162.56,224.36,88.333,0.26997,161.9,207.56,80.68,0.28633,162.23,84.507,216.01,0.27808,tetragonal,0,10.15927884,H4
mp-13852,Ge3N4,Ge3N4,175.11,216.52,83.667,0.29392,174.5,199.25,76.066,0.3097,174.81,79.867,207.93,0.30175,hexagonal,1.8956,5.122599002,H1a
mp-3771,MgTiO3,MgTiO3,164.56,220.88,86.533,0.27628,160.58,210.26,82.02,0.28177,162.57,84.277,215.58,0.27899,trigonal,3.5165,3.780006602,H2
mp-4612,TiCo2Ge,TiCo2Ge,179,220.6,85.2,0.2946,179,189.04,71.39,0.32399,179,78.295,205,0.30913,cubic,0,7.9266039,H1a
mp-1025213,InPPt5,InPPt5,234,188.97,69.2,0.3654,233.94,145.74,52.193,0.39617,233.97,60.696,167.6,0.38061,tetragonal,0,16.44693179,H4
mp-6073,Mg3Al2(SiO4)3,Mg3Al2(SiO4)3,160,217.07,85.2,0.27389,160,217.02,85.175,0.27394,160,85.187,217.04,0.27391,cubic,4.9403,3.456549647,H2
mp-15968,Sm(CoSi)2,Sm(CoSi)2,145.33,231.98,94,0.23396,144.26,220.33,88.454,0.24545,144.8,91.227,226.18,0.23966,tetragonal,0,7.089254797,H4
mp-21340,HfGePt,HfGePt,177.44,208.34,79.867,0.30431,176.07,204.21,78.139,0.3067,176.76,79.003,206.28,0.3055,orthorhombic,0,14.41980745,H4