Material_ID,Formula,pretty_formula,KV ,EV ,GV ,PV ,KR ,ER ,GR ,PR ,bulk,shear,young,poisson,csyst,gap,density,y_cla
mp-4852,Ni(RhSe2)2,Ni(RhSe2)2,89.111,90.649,34.067,0.33046,85.198,79.842,29.707,0.34381,87.154,31.887,85.263,0.33695,monoclinic,0,7.52752671,H4
mp-865858,PaAu3,PaAu3,126.33,71.414,25.4,0.40579,126.33,43.57,15.102,0.44252,126.33,20.251,57.672,0.42392,cubic,0,16.31905184,H1a
mp-568880,YInPd2,YInPd2,102.33,77.986,28.4,0.37299,102.33,71.392,25.797,0.38373,102.33,27.098,74.701,0.37834,cubic,0,8.770745741,H1a
mvc-15272,Ca2CoN2,Ca2CoN2,76.778,108,42.667,0.26557,64.487,83.502,32.511,0.28419,70.632,37.589,95.777,0.274,monoclinic,0,3.653062236,H4
mp-20356,Ce2SbO2,Ce2SbO2,79.667,92.499,35.4,0.30649,78.965,87.969,33.465,0.31433,79.316,34.433,90.239,0.31038,tetragonal,0,7.033216415,H4
mp-861901,LiGaCu2,LiGaCu2,84.333,121.46,48.2,0.25996,84.333,48.424,17.241,0.4043,84.333,32.721,86.921,0.32822,cubic,0,6.659223227,H1a
mp-561877,HoF3,HoF3,89.556,129.72,51.533,0.25859,41.105,68.056,27.799,0.22406,65.33,39.666,98.969,0.24752,orthorhombic,7.9848,7.58260935,H2
mp-708,LaAs,LaAs,65,104.89,42.6,0.23106,65,93.263,36.984,0.26086,65,39.792,99.144,0.24578,cubic,0.0414,5.96970124,H5
mp-981215,Zn3Co,Zn3Co,86.667,122.41,48.4,0.26459,86.667,43.552,15.376,0.41625,86.667,31.888,85.213,0.33613,cubic,0,8.139891934,H1a
mp-6879,Ba2CaCu2HgO6,Ba2CaCu2HgO6,81.333,100.43,38.8,0.2942,76.116,80.328,30.333,0.32411,78.725,34.566,90.46,0.30849,tetragonal,0,6.158075339,H4
mp-866117,HfZnAu2,HfZnAu2,137,77.59,27.6,0.40561,137,20.08,6.8041,0.47557,137,17.202,49.533,0.43974,cubic,0,14.75026693,H1a
mp-10649,Si,Si,85.667,98.86,37.8,0.30767,85.64,72.136,26.528,0.35961,85.653,32.164,85.758,0.33313,hexagonal,0,3.245127904,H4
mp-755581,NaCeO2,NaCeO2,70.667,107.66,43.2,0.24608,64.145,87.091,34.188,0.27371,67.406,38.694,97.437,0.25908,trigonal,0,5.211081396,H2
mp-640041,NbZn16,NbZn16,85.444,90.678,34.267,0.32312,84.436,81.658,30.496,0.33882,84.94,32.381,86.191,0.33088,orthorhombic,0,7.295698762,H4
mp-13512,CaNiGe2,CaNiGe2,77.222,94.671,36.533,0.29567,73.923,89.959,34.675,0.29718,75.573,35.604,92.315,0.29641,orthorhombic,0,5.41625947,H4
mp-1795,NbF3,NbF3,95,117.93,45.6,0.2931,95,36.394,12.671,0.43615,95,29.135,79.299,0.36088,cubic,0,3.371714115,H1a
mp-567089,YbRh,YbRh,80,89.803,34.2,0.31291,80,88.978,33.841,0.31463,80,34.021,89.391,0.31377,cubic,0,12.51302466,H1a
mp-985805,AlAg2,AlAg2,94.667,82.382,30.4,0.35496,92.785,77.923,28.648,0.36003,93.726,29.524,80.155,0.35747,orthorhombic,0,7.814765925,H4
mp-777667,LiV2O5,LiV2O5,84.111,103.73,40.067,0.29446,63.642,82.751,32.242,0.28329,73.877,36.154,93.251,0.28963,orthorhombic,1.6295,3.184212226,H2
mp-983236,Pm2ZnOs,Pm2ZnOs,93.333,80.31,29.6,0.35659,93.333,80.29,29.592,0.35662,93.333,29.596,80.3,0.35661,cubic,0,9.96357372,H1a
mp-862830,PaTlAu2,PaTlAu2,109.67,72.802,26.2,0.38936,109.67,64.905,23.158,0.40136,109.67,24.679,68.871,0.39533,cubic,0,15.30249499,H1a
mp-561480,NaNiF3,NaNiF3,74,94.26,36.6,0.2877,73.525,92.256,35.734,0.29087,73.762,36.167,93.259,0.28928,orthorhombic,4.6108,3.919248025,H2
mp-5380,Ca4P2O,Ca4P2O,57,104.23,43.6,0.19525,56.884,102.11,42.517,0.20082,56.942,43.059,103.17,0.19803,tetragonal,1.2956,2.57417312,H1a
mp-971975,SrHgO3,SrHgO3,60.667,112.44,47.2,0.1911,60.667,89.194,35.536,0.25496,60.667,41.368,101.12,0.2222,cubic,0,7.344072416,H1a
mp-4236,BaZnO2,BaZnO2,83.111,87.585,33.067,0.32436,82.968,86.816,32.746,0.3256,83.04,32.906,87.201,0.32498,trigonal,2.2892,5.545034865,H2
mp-5538,YSnPd2,YSnPd2,107.67,71.16,25.6,0.38985,107.67,69.288,24.874,0.39274,107.67,25.237,70.225,0.39129,cubic,0,8.839720826,H1a
mp-1995,PrC2,PrC2,95,129.34,50.8,0.27308,89.162,26.282,9.0574,0.45087,92.081,29.929,81.009,0.35337,tetragonal,0,5.575561048,H4
mp-4370,Sr(AsPd)2,Sr(AsPd)2,80.667,92.647,35.4,0.30858,80.553,84.545,31.902,0.32508,80.61,33.651,88.621,0.31677,tetragonal,0,7.300167747,H4
mp-16648,LiSn4Rh,LiSn4Rh,63.889,102,41.333,0.23391,63.532,96.191,38.549,0.24765,63.71,39.941,99.112,0.24072,tetragonal,0,7.502878622,H4
mp-5238,GaCuS2,GaCuS2,74.556,98.174,38.333,0.28053,74.549,86.634,33.16,0.30632,74.552,35.746,92.462,0.2933,tetragonal,0.7026,4.277152732,H1a
mp-864675,Yb3N2,Yb3N2,80.333,90.769,34.6,0.31168,78.226,88.038,33.54,0.31243,79.28,34.07,89.403,0.31205,trigonal,0.4892,10.30057431,H2
mp-1043,HfV2,HfV2,142,3.5899,1.2,0.49579,142,84.079,30,0.40132,142,15.6,45.147,0.44701,cubic,0,9.514937097,H1a
mp-867182,Sm2ZnIr,Sm2ZnIr,86,84.932,31.8,0.3354,86,84.861,31.77,0.33554,86,31.785,84.896,0.33547,cubic,0,10.26567627,H1a
mp-976727,PrBiO3,PrBiO3,103.67,106.32,40,0.32906,103.67,36.249,12.571,0.44172,103.67,26.286,72.712,0.3831,cubic,0,7.503595689,H1a
mp-983603,ErZnAsO,ErZnAsO,78.889,102.5,39.933,0.28344,75.936,78.088,29.387,0.32861,77.412,34.66,90.477,0.3052,tetragonal,1.1523,7.818351952,H1a
mp-19970,Li3CuO3,Li3CuO3,78,93.149,35.8,0.30096,77.99,87,33.103,0.31408,77.995,34.451,90.09,0.30749,tetragonal,1.2968,3.130960431,H1a
mp-30586,HoInCu2,HoInCu2,84,94.5,36,0.3125,84,77.538,28.8,0.34615,84,32.4,86.127,0.32911,cubic,0,9.336203667,H1a
mp-7704,Ca(AlSi)2,Ca(AlSi)2,63,102.29,41.6,0.2294,60.733,97.743,39.676,0.23177,61.867,40.638,100.02,0.23056,trigonal,0,2.347097201,H2
mp-13513,SrNiGe2,SrNiGe2,71.222,96.643,37.933,0.27385,69.272,93.303,36.575,0.27552,70.247,37.254,94.973,0.27467,orthorhombic,0,5.983161256,H4
mp-976236,NaCaTl2,NaCaTl2,82.667,92.475,35.2,0.31356,82.667,81.35,30.446,0.33599,82.667,32.823,86.959,0.32468,cubic,0,6.804896688,H1a
mp-1342,BaO,BaO,68.333,96.173,38,0.26543,68.333,96.09,37.961,0.26564,68.333,37.981,96.131,0.26553,cubic,2.2561,5.753123041,H2
mp-753226,SmAgO2,SmAgO2,106.67,95.622,35.4,0.35059,103.28,46.316,16.248,0.42526,104.97,25.824,71.601,0.38632,trigonal,2.6369,6.637272531,H2
mp-754933,SmTlO2,SmTlO2,78.333,102.11,39.8,0.28275,75.526,78.861,29.737,0.32598,76.93,34.768,90.649,0.30361,trigonal,1.7926,8.732319362,H2
mp-976419,Hf3Bi,Hf3Bi,100.67,122.91,47.4,0.29651,100.67,19.898,6.7817,0.46706,100.67,27.091,74.582,0.37652,tetragonal,0,13.42583086,H4
mp-5848,ErZrSb,ErZrSb,72.333,100.04,39.4,0.2695,71.373,87.509,33.77,0.29566,71.853,36.585,93.83,0.28236,tetragonal,0,8.406905287,H4
mp-21087,UAs,UAs,93.667,88.115,32.8,0.34321,93.667,70.399,25.605,0.37474,93.667,29.202,79.36,0.35879,cubic,0,12.05657618,H1a
mp-7474,Cu2As,Cu2As,109.11,74.486,26.867,0.38622,106.2,64.52,23.064,0.39875,107.66,24.965,69.521,0.39237,tetragonal,0,7.816044787,H4
mp-865993,YbSmRh2,YbSmRh2,91,81.089,30,0.35149,91,81.089,30,0.35149,91,30,81.089,0.35149,cubic,0,11.00815127,H1a
mp-4738,PrScGe,PrScGe,63.667,101.26,41,0.23491,63.552,96.125,38.514,0.24791,63.609,39.757,98.707,0.24137,tetragonal,0,5.637927849,H4
mp-1068,CuS2,CuS2,77.667,91.74,35.2,0.30313,77.667,88.183,33.638,0.31077,77.667,34.419,89.967,0.30694,cubic,0,4.347611635,H1a
mp-2699,CaSi2,CaSi2,63.222,103.42,42.133,0.22735,60,96.21,39.023,0.23275,61.611,40.578,99.82,0.22997,trigonal,0,2.425873344,H2
mp-865936,LiSc2Tc,LiSc2Tc,82,87.29,33,0.32258,82,86.878,32.824,0.32342,82,32.912,87.084,0.323,cubic,0,4.519935185,H1a
mp-754262,Zn2As2O7,Zn2As2O7,113.67,94.732,34.8,0.3611,93.886,48.806,17.266,0.41336,103.78,26.033,72.072,0.38425,monoclinic,1.7745,4.746963212,H4
mp-1029349,Y4Se3N2,Y4Se3N2,71.333,100.68,39.8,0.26478,67.102,89.61,35.074,0.27743,69.218,37.437,95.156,0.27088,monoclinic,1.4448,4.910405766,H4
mp-30315,Ca3BN3,Ca3BN3,81.111,102.32,39.667,0.28975,81.092,72.062,26.652,0.35189,81.102,33.159,87.547,0.32009,tetragonal,0.5712,2.758640984,H1a
mp-10637,ThSb,ThSb,89,82.361,30.6,0.34577,89,82.123,30.502,0.34621,89,30.551,82.242,0.34599,cubic,0,10.20393788,H1a
mp-16033,Sm2TeO2,Sm2TeO2,72.778,103.27,40.867,0.2635,70.801,83.516,32.038,0.3034,71.789,36.452,93.527,0.28287,tetragonal,1.4499,7.363484218,H1a
mp-980059,TbPmRh2,TbPmRh2,105.67,71.061,25.6,0.38792,105.67,70.151,25.246,0.38935,105.67,25.423,70.606,0.38863,cubic,0,9.894486007,H1a
mp-570093,DyZn2,DyZn2,69.444,97.414,38.467,0.26621,68.923,92.766,36.359,0.27568,69.184,37.413,95.097,0.27091,orthorhombic,0,8.08684955,H4
mp-7159,La3TlC,La3TlC,63.333,98.721,39.8,0.24021,63.333,98.476,39.681,0.24085,63.333,39.74,98.598,0.24053,cubic,0,7.269250747,H1a
mp-1029741,Sr3IrN3,Sr3IrN3,67.444,96.965,38.467,0.26038,67.254,95.406,37.753,0.26357,67.349,38.11,96.186,0.26197,hexagonal,0,5.96007942,H4
mp-755651,CsGdO2,CsGdO2,70.222,104.92,41.933,0.25099,68.732,84.395,32.576,0.29535,69.477,37.255,94.817,0.27255,hexagonal,2.4891,6.849036884,H1b
mp-8635,Zr,Zr,90.333,88.73,33.2,0.33629,90.333,73.429,26.906,0.36452,90.333,30.053,81.159,0.35026,cubic,0,6.488881926,H1a
mp-1367,Mg2Si,Mg2Si,53,104.12,44.4,0.17257,53,104.11,44.395,0.1726,53,44.397,104.12,0.17258,cubic,0.2935,1.975370396,H5
mp-9937,USbSe,USbSe,70.778,109.48,44.067,0.2422,69.516,78.464,29.905,0.31188,70.147,36.986,94.371,0.27578,tetragonal,0,9.678269568,H4
mp-438,Nd2S3,Nd2S3,74.556,92.879,35.933,0.29237,73.822,90.749,35.035,0.29512,74.189,35.484,91.814,0.29374,orthorhombic,0.7604,5.34369916,H2
mp-752928,LiCoS2,LiCoS2,77.889,97.906,37.933,0.2905,76.691,81.501,30.805,0.32288,77.29,34.369,89.797,0.30636,monoclinic,0,3.601256341,H4
mp-983908,Er2ZnAu,Er2ZnAu,79.333,90.167,34.4,0.31057,79.333,86.74,32.911,0.31777,79.333,33.656,88.458,0.31416,cubic,0,11.00475044,H1a
mp-9930,UPSe,UPSe,81,96.332,37,0.30179,73.938,82.819,31.531,0.31331,77.469,34.265,89.587,0.30726,tetragonal,0,9.249907959,H4
mp-754629,WN2,WN2,103.44,72.651,26.267,0.38295,102.74,71.568,25.857,0.3839,103.09,26.062,72.109,0.38342,trigonal,1.0029,5.761176998,H2
mp-11964,Ce2CdPt2,Ce2CdPt2,89,83.326,31,0.34396,88.875,80.382,29.787,0.34926,88.938,30.394,81.856,0.3466,tetragonal,0,11.17054154,H4
mp-865592,Y2ZnRu,Y2ZnRu,86.333,84.014,31.4,0.33781,86.333,83.21,31.063,0.33936,86.333,31.232,83.612,0.33859,cubic,0,6.725857039,H1a
mp-30349,Li2AgPb,Li2AgPb,94,94.355,35.4,0.3327,94,61.672,22.174,0.39065,94,28.787,78.362,0.36106,cubic,0,7.040600963,H1a
mp-4979,AlCuS2,AlCuS2,66.556,101.91,40.933,0.2448,66.255,90.782,35.695,0.27164,66.405,38.314,96.402,0.25805,tetragonal,1.6756,3.435993537,H1a
mp-11430,Ca3Al7Ag2,Ca3Al7Ag2,62.889,98.873,39.933,0.23797,62.641,98.226,39.65,0.23865,62.765,39.792,98.549,0.23831,trigonal,0,3.533877687,H2
mp-10698,Ba(GeRh)2,Ba(GeRh)2,76.778,103.69,40.667,0.27491,62.139,85.296,33.549,0.27122,69.458,37.108,94.495,0.27326,tetragonal,0,7.412748608,H4
mp-867235,LiY2Ir,LiY2Ir,76.667,90.227,34.6,0.30385,76.667,89.586,34.318,0.30525,76.667,34.459,89.906,0.30455,cubic,0,7.36002714,H1a
mp-25886,CuPO4,CuPO4,69.222,114.45,46.733,0.22445,50.832,85.444,35.023,0.21985,60.027,40.878,99.946,0.2225,orthorhombic,0.0016,3.712119611,H2
mp-5364,YbBO3,YbBO3,83.333,94.406,36,0.31119,77.333,80.316,30.264,0.32691,80.333,33.132,87.383,0.31871,trigonal,0,6.105076299,H2
mp-977399,LiMgPd2,LiMgPd2,78.667,94.608,36.4,0.29956,78.667,82.157,30.981,0.32594,78.667,33.69,88.445,0.31262,cubic,0,6.801347076,H1a
mp-11418,TbGa3,TbGa3,66.667,96.222,38.2,0.25945,66.667,95.831,38.015,0.26042,66.667,38.108,96.026,0.25993,cubic,0,7.758844241,H1a
mp-981210,Tl3V,Tl3V,102.22,74.783,27.133,0.37807,100.92,70.883,25.627,0.38294,101.57,26.38,72.836,0.38049,tetragonal,0,10.81782473,H4
mp-9095,Tb2Si3,Tb2Si3,76.222,93.608,36.133,0.29532,74.078,87.804,33.707,0.30245,75.15,34.92,90.711,0.29882,orthorhombic,0,6.112058446,H4
mp-17518,Sr2TaN3,Sr2TaN3,69.222,98.36,38.933,0.26318,66.64,92.115,36.277,0.26962,67.931,37.605,95.241,0.26633,monoclinic,2.4836,6.056681153,H2
mp-3795,NaZnF3,NaZnF3,84.333,85.694,32.2,0.33065,83.215,84.267,31.65,0.33123,83.774,31.925,84.98,0.33093,orthorhombic,3.7595,3.921646485,H2
mp-962068,CaMgSn,CaMgSn,125.33,68.21,24.2,0.4093,125.33,42.978,14.894,0.44285,125.33,19.547,55.743,0.42587,cubic,0,3.515384503,H1a
mp-2534,GaAs,GaAs,60.333,102.66,42.2,0.2164,60.333,96.517,39.127,0.23338,60.333,40.663,99.612,0.22483,cubic,0.1839,5.053200624,H5
mp-20531,NdCoGe,NdCoGe,70.333,100.45,39.8,0.26196,66.893,88.914,34.774,0.27847,68.613,37.287,94.705,0.26995,tetragonal,0,7.680963449,H4
mp-2495,PrS,PrS,82,108.94,42.6,0.27859,82,61.441,22.34,0.37512,82,32.47,86.052,0.3251,cubic,0,5.865214169,H1a
mp-12070,CuAs,CuAs,102.22,76.804,27.933,0.37478,102.22,67.458,24.265,0.39001,102.22,26.099,72.157,0.38235,hexagonal,0,7.115978829,H4
mp-1025151,Cr2NiSe4,Cr2NiSe4,74.778,94.99,36.867,0.28828,74.517,86.553,33.126,0.30641,74.648,34.996,90.8,0.29727,monoclinic,0,6.227119155,H4
mp-241,CdF2,CdF2,96.333,84.968,31.4,0.353,96.333,67.324,24.331,0.38352,96.333,27.865,76.245,0.36809,cubic,3.0701,6.029135395,H2
mp-30403,Li2PbAu,Li2PbAu,57.667,101,41.8,0.2081,57.667,100.9,41.748,0.2084,57.667,41.774,100.95,0.20825,cubic,0,9.063081316,H1a
mp-5090,Ti2FeSe4,Ti2FeSe4,58.889,104.01,43.133,0.20564,58.336,96.771,39.546,0.22352,58.612,41.34,100.41,0.21448,monoclinic,0,5.79393359,H4
mp-31136,Lu2NiSn6,Lu2NiSn6,65.889,97.58,38.933,0.25317,64.972,95.325,37.964,0.25547,65.43,38.449,96.453,0.25431,orthorhombic,0,8.665240228,H4
mp-27823,SmClO,SmClO,79,96.011,37,0.29745,74.2,82.87,31.537,0.31386,76.6,34.268,89.464,0.30534,tetragonal,4.8783,6.123320079,H4
mp-867119,LiHfPd2,LiHfPd2,116.67,66.854,23.8,0.40449,116.67,56.624,19.95,0.41911,116.67,21.875,61.765,0.41176,cubic,0,10.11668554,H1a
mp-11291,CeCd,CeCd,51.778,59.341,22.667,0.30899,46.611,138.94,69.249,0.0031879,49.194,45.958,105.13,0.14381,tetragonal,0,7.346945253,H4
mp-10873,ScAlAu2,ScAlAu2,113.67,69.877,25,0.39754,113.67,57.822,20.429,0.41522,113.67,22.714,63.887,0.40632,cubic,0,10.72473961,H1a
mp-19713,Sc3In,Sc3In,63.333,97.899,39.4,0.24237,63.325,97.412,39.165,0.24362,63.329,39.282,97.656,0.24299,hexagonal,0,4.443026391,H4
mp-1025144,CeGaGe,CeGaGe,68.667,101.33,40.4,0.25406,65.183,89.611,35.256,0.27087,66.925,37.828,95.492,0.26219,tetragonal,0,7.032302485,H4
mp-31277,Sn4Ir,Sn4Ir,72.556,92.525,35.933,0.28746,72.158,91.686,35.586,0.28823,72.357,35.76,92.106,0.28784,tetragonal,0,9.269841022,H4
mp-1025096,ErZn2,ErZn2,59.444,101.72,41.867,0.2148,58.83,98.316,40.245,0.22147,59.137,41.056,100.02,0.21811,orthorhombic,0,8.392825956,H4
mp-36111,LiMgP,LiMgP,55.333,102.08,42.8,0.19253,55.333,102.08,42.799,0.19254,55.333,42.799,102.08,0.19253,cubic,1.5647,1.897717916,H5
mp-31348,Sc2In,Sc2In,65.444,98.583,39.467,0.24894,64.887,94.461,37.563,0.25737,65.166,38.515,96.528,0.25312,hexagonal,0,4.870411778,H4
mp-30801,NdZn5,NdZn5,66.444,100.91,40.467,0.24687,66.358,90.54,35.573,0.2726,66.401,38.02,95.779,0.2596,hexagonal,0,7.276123775,H4
mp-978824,Sm2RuAu,Sm2RuAu,98.333,74.711,27.2,0.37337,98.333,74.621,27.164,0.37352,98.333,27.182,74.666,0.37345,cubic,0,10.89281863,H1a
mp-31171,Zn2AgAu,Zn2AgAu,101.67,94.674,35.2,0.3448,101.67,48.655,17.129,0.42024,101.67,26.165,72.292,0.38149,cubic,0,11.13651843,H1a
mp-16513,NdAl3,NdAl3,69.333,105.66,42.4,0.24601,62.352,86.373,34.028,0.26912,65.842,38.214,96.059,0.25685,hexagonal,0,4.412471303,H4
mp-972415,YErAl2,YErAl2,71.667,114.9,46.6,0.2328,71.667,68.002,25.339,0.34185,71.667,35.969,92.443,0.28502,cubic,0,5.573526273,H1a
mp-5459,Nd2TeO2,Nd2TeO2,75.111,99.447,38.867,0.27933,73.023,82.193,31.314,0.3124,74.067,35.09,90.914,0.29542,tetragonal,1.6053,6.894901377,H1a
mp-10760,MgSe,MgSe,58.667,100.15,41.2,0.21547,58.667,100.11,41.176,0.2156,58.667,41.188,100.13,0.21554,cubic,1.9792,4.098142744,H5
mp-1558,SrPd2,SrPd2,80.333,88.928,33.8,0.3155,80.333,84.564,31.922,0.32456,80.333,32.861,86.754,0.32001,cubic,0,7.960832959,H1a
mp-2744,LiPd,LiPd,80.333,93.509,35.8,0.306,76.678,82.279,31.139,0.32116,78.506,33.469,87.915,0.31336,hexagonal,0,6.608910024,H4
mp-10598,CuSn,CuSn,76.667,94.726,36.6,0.29407,76.66,83.347,31.6,0.31879,76.663,34.1,89.09,0.30632,hexagonal,0,7.865649928,H4
mp-863725,Pm2PdPt,Pm2PdPt,95,76.983,28.2,0.36494,95,76.367,27.952,0.36602,95,28.076,76.675,0.36548,cubic,0,10.55995198,H1a
mp-552738,TmBi2IO4,TmBi2IO4,74,105.95,42,0.26136,60.601,83.881,33.042,0.26931,67.301,37.521,94.923,0.26493,tetragonal,1.4113,8.683084204,H1a
mp-1008876,MnCoS,MnCoS,138.33,45.662,15.8,0.44499,138.33,45.497,15.741,0.44518,138.33,15.77,45.579,0.44509,cubic,0,6.021095871,H1a
mp-18778,Zr(WO4)2,Zr(WO4)2,92.333,80.227,29.6,0.35519,92.333,76.655,28.148,0.36163,92.333,28.874,78.445,0.3584,cubic,3.607,4.747219103,H2
mp-983497,Pa3Zn,Pa3Zn,91.667,111.56,43,0.29717,91.667,43.02,15.129,0.42178,91.667,29.065,78.859,0.35662,cubic,0,13.74137336,H1a
mp-865159,Dy2AlZn,Dy2AlZn,62.667,106.18,43.6,0.21762,62.667,88.637,35.055,0.26426,62.667,39.327,97.572,0.2405,cubic,0,7.475850208,H1a
mp-618991,Cu2S,Cu2S,93.778,79.527,29.267,0.35866,92.219,76.302,28.009,0.3621,92.998,28.638,77.916,0.36036,tetragonal,0.5023,5.898628511,H1a
mp-568920,CaAu5,CaAu5,99,77.264,28.2,0.36993,99,70.205,25.403,0.38181,99,26.802,73.75,0.37584,cubic,0,13.85502465,H1a
mp-754110,SmAgO2,SmAgO2,101.22,94.952,35.333,0.34366,98.119,50.511,17.859,0.4142,99.671,26.596,73.271,0.37748,hexagonal,2.57,6.633194428,H1b
mp-11237,ScAg,ScAg,82,91.462,34.8,0.3141,82,79.132,29.545,0.33916,82,32.173,85.355,0.32651,cubic,0,6.20856059,H1a
mp-864608,NpGaRh2,NpGaRh2,96,78.545,28.8,0.36364,96,72.943,26.556,0.37336,96,27.678,75.754,0.36848,cubic,0,12.5456497,H1a
mp-11157,SmMgGa,SmMgGa,54.889,104.79,44.333,0.18182,54.528,98.938,41.307,0.19759,54.708,42.82,101.88,0.18963,hexagonal,0,5.688203827,H4
mp-756094,LiFeS2,LiFeS2,90.111,91.235,34.267,0.33125,89.28,68.593,24.999,0.37195,89.696,29.633,80.079,0.3512,trigonal,0,3.644613267,H2
mp-1029878,SrMnN2,SrMnN2,94.667,93.955,35.2,0.33459,89.912,61.956,22.364,0.38515,92.289,28.782,78.215,0.35875,monoclinic,0,4.780665494,H4
mp-20439,CeAl,CeAl,57.222,61.158,23.133,0.32187,53.885,133.81,61.599,0.086133,55.554,42.366,101.34,0.19598,orthorhombic,0,5.901388183,H4
mp-541431,Ca2SiH2O5,Ca2SiH2O5,71.556,92.343,35.933,0.28492,71.344,91.597,35.612,0.28602,71.45,35.773,91.97,0.28547,orthorhombic,4.6543,2.649973028,H2
mp-7781,CaZrS3,CaZrS3,70.444,96.769,38.067,0.27105,68.076,89.808,35.078,0.28013,69.26,36.572,93.295,0.2755,orthorhombic,1.1878,3.352008297,H2
mp-997034,BaCuO2,BaCuO2,82.333,93.804,35.8,0.31011,72.726,82.216,31.342,0.31159,77.53,33.571,88.01,0.3108,orthorhombic,0,5.642492122,H4
mp-4175,ZnSnP2,ZnSnP2,63.778,101.02,40.867,0.236,63.755,92.078,36.56,0.25929,63.766,38.713,96.592,0.24754,tetragonal,0.7059,4.387934014,H1a
mp-867310,CeSnAu2,CeSnAu2,79.667,92.044,35.2,0.30744,79.667,81.016,30.446,0.33051,79.667,32.823,86.578,0.31887,cubic,0,11.87778743,H1a
mp-865156,Dy2ZnGa,Dy2ZnGa,63.333,102.38,41.6,0.23057,63.333,91.156,36.17,0.26011,63.333,38.885,96.837,0.24517,cubic,0,8.392466452,H1a
mp-974740,NdBiO3,NdBiO3,107,104.32,39,0.3375,107,27.872,9.5676,0.45659,107,24.284,67.728,0.39451,cubic,0,7.634012602,H1a
mp-3207,Sr(NiGe)2,Sr(NiGe)2,72.444,96.308,37.667,0.27843,71.031,86.94,33.542,0.296,71.738,35.604,91.65,0.28707,tetragonal,0,6.425038587,H4
mp-866081,MgSc2Os,MgSc2Os,103.33,70.429,25.4,0.3864,103.33,70.141,25.287,0.38687,103.33,25.344,70.285,0.38664,cubic,0,6.783948891,H1a
mp-863741,Pm2PdRu,Pm2PdRu,99.333,73.261,26.6,0.37708,99.333,72.906,26.46,0.37767,99.333,26.53,73.083,0.37738,cubic,0,9.267828106,H1a
mp-999539,MnO,MnO,87.111,85.21,31.867,0.33697,86.559,78.024,28.903,0.34977,86.835,30.385,81.633,0.34332,hexagonal,0,4.220446787,H4
mp-31330,NdInRh,NdInRh,88.556,83.603,31.133,0.34265,88.525,77.226,28.505,0.35461,88.54,29.819,80.429,0.3486,hexagonal,0,8.744864897,H4
mp-5821,TaAgS3,TaAgS3,79.889,113.09,44.733,0.26406,69.353,65.127,24.238,0.34349,74.621,34.486,89.647,0.29977,orthorhombic,0.006,6.742764636,H2
mp-863738,ErCdPd2,ErCdPd2,102,86.419,31.8,0.35879,102,55.14,19.555,0.4099,102,25.677,71.068,0.38388,cubic,0,10.60862446,H1a
mp-865360,Tm2MgIr,Tm2MgIr,94.667,76.462,28,0.36538,94.667,75.909,27.778,0.36636,94.667,27.889,76.185,0.36587,cubic,0,10.68456953,H1a
mp-30392,Li2InAu,Li2InAu,72,95.204,37.2,0.27962,72,87.362,33.659,0.29777,72,35.429,91.311,0.28863,cubic,0,7.695919314,H1a
mp-972914,Sc2AlCd,Sc2AlCd,84,111.94,43.8,0.27789,84,52.294,18.727,0.39624,84,31.263,83.439,0.33445,cubic,0,4.537235936,H1a
mp-13900,Sr(CuO)2,Sr(CuO)2,108.67,71.724,25.8,0.38999,99.684,67.224,24.223,0.38761,104.18,25.011,69.474,0.38885,tetragonal,1.816,5.451743589,H1a
mp-178,ThAl,ThAl,72,99.106,39,0.27059,71.262,83.688,32.082,0.30427,71.631,35.541,91.492,0.28712,orthorhombic,0,8.043605305,H4