Material_ID,Formula,pretty_formula,KV ,EV ,GV ,PV ,KR ,ER ,GR ,PR ,bulk,shear,young,poisson,csyst,gap,density,y_cla
mp-553946,CoAsS,CoAsS,134.44,238.98,99.267,0.20374,134.03,224.93,92.16,0.22031,134.24,95.713,232,0.21196,orthorhombic,0,6.156696562,H4
mp-761842,Hf3SnO8,Hf3SnO8,183.67,212.31,81.2,0.30734,178.64,194.27,73.655,0.31876,181.16,77.427,203.32,0.31295,monoclinic,3.6368,8.720930515,H2
mp-975423,MnNiP,MnNiP,176.56,209.71,80.533,0.30203,175.46,203.41,77.83,0.30678,176.01,79.182,206.57,0.3044,hexagonal,0,7.007107738,H4
mp-19238,Co(PtO2)3,Co(PtO2)3,195,208.8,79,0.32154,194.28,179.09,66.507,0.34637,194.64,72.754,194.08,0.33381,orthorhombic,0.2149,10.59977747,H2
mp-865538,Ti2RePd,Ti2RePd,192,197.67,74.4,0.32841,192,193.94,72.817,0.33165,192,73.609,195.8,0.33003,cubic,0,10.42939833,H1a
mp-1589,TiCr2,TiCr2,196.78,195.53,73.267,0.33439,196.64,189.74,70.841,0.33918,196.71,72.054,192.64,0.33678,hexagonal,0,6.224331065,H4
mp-1018659,CeO2,CeO2,176.89,19.947,6.7333,0.48121,118.44,348.81,172.82,0.0091469,147.66,89.778,223.95,0.24723,hexagonal,0.8878,7.540652936,H1a
mp-11322,ZrSi,ZrSi,142.44,237.7,97.267,0.22188,141.73,216.45,86.894,0.24547,142.09,92.08,227.17,0.23354,orthorhombic,0,5.568665074,H4
mp-3098,AlCuO2,AlCuO2,187.67,231.45,89.4,0.29445,176,172.77,64.639,0.33639,181.83,77.02,202.47,0.31442,hexagonal,1.8152,4.964065438,H1a
mp-867187,ScInIr2,ScInIr2,176,216.07,83.4,0.29539,176,196.31,74.692,0.3141,176,79.046,206.26,0.30468,cubic,0,13.33417235,H1a
mp-20924,U(FeSi)2,U(FeSi)2,168.44,239.62,94.867,0.26291,167.93,181.45,68.737,0.31991,168.19,81.802,211.17,0.29074,tetragonal,0,9.280268647,H4
mp-1018151,NbPd2,NbPd2,191.56,217.88,83.133,0.31043,188.83,175.22,65.121,0.34535,190.19,74.127,196.81,0.32753,orthorhombic,0,10.55930877,H4
mp-2203,YB6,YB6,172,265.46,106.8,0.24277,172,146.47,53.924,0.35808,172,80.362,208.6,0.29787,cubic,0,3.699194843,H1a
mp-764648,LiTiO2,LiTiO2,146.89,240.78,98.133,0.2268,137.68,212.69,85.585,0.24253,142.28,91.859,226.78,0.23436,hexagonal,0,3.932010695,H4
mp-867922,ScAlRh2,ScAlRh2,163.33,214.25,83.6,0.28138,163.33,213.44,83.231,0.28221,163.33,83.415,213.84,0.28179,cubic,0,7.590062761,H1a
mp-11508,MoP4,MoP4,130.89,245.79,103.53,0.18702,127.95,221.38,91.357,0.21164,129.42,97.445,233.69,0.19906,monoclinic,0,4.445367586,H4
mp-22508,YMn12,YMn12,153.44,223.46,88.867,0.25728,147.46,219.95,87.88,0.25141,150.45,88.373,221.71,0.2544,tetragonal,0,7.697063754,H4
mp-10289,Ca(BC)2,Ca(BC)2,165.22,271.14,110.53,0.22649,104.62,189.88,79.279,0.19752,134.92,94.906,230.64,0.21509,tetragonal,0.6178,2.658160019,H1a
mp-550433,BeZnO2,BeZnO2,166.56,228.65,89.933,0.2712,163.36,196.41,75.563,0.29962,164.96,82.748,212.68,0.28512,tetragonal,2.917,4.750973583,H4
mp-867901,ScTaTc2,ScTaTc2,193,197.79,74.4,0.3292,193,191.01,71.538,0.33505,193,72.969,194.41,0.33212,cubic,0,10.60438257,H1a
mp-24669,CrH,CrH,184.67,200.03,75.8,0.31947,184.6,199.81,75.707,0.3196,184.63,75.754,199.92,0.31954,hexagonal,0,5.936731882,H4
mp-19442,Mn(Ni3O4)2,Mn(Ni3O4)2,160,215.77,84.6,0.27524,160,215.67,84.555,0.27534,160,84.578,215.72,0.27529,cubic,1.5124,5.988016322,H5
mp-7302,CrP4,CrP4,127.44,249.1,106.07,0.17424,121.07,223.21,93.573,0.19273,124.26,99.82,236.21,0.18318,monoclinic,0,3.896481721,H4
mp-705519,Ni15O16,Ni15O16,168.67,210.36,81.4,0.29213,168.67,210.08,81.273,0.29241,168.67,81.337,210.22,0.29227,cubic,0,6.361803162,H1a
mp-981367,SrTlO3,SrTlO3,246.33,163.91,59,0.3891,246.33,150.77,53.925,0.39799,246.33,56.462,157.36,0.39353,cubic,0,7.203327833,H1a
mp-20395,VAsRh,VAsRh,185.33,203.36,77.2,0.31712,181.62,197.73,74.979,0.31856,183.48,76.089,200.55,0.31783,orthorhombic,0,8.65039455,H4
mp-10908,AlRe,AlRe,220,251.43,96,0.30952,220,93.22,32.609,0.42938,220,64.304,175.79,0.36683,cubic,0,12.3220022,H1a
mp-973920,Lu2Ta2O5,Lu2Ta2O5,178.78,214.43,82.467,0.3001,178.53,192.67,72.974,0.32013,178.65,77.72,203.63,0.31003,tetragonal,0,11.19907744,H4
mp-815,GaNi3,GaNi3,179.67,220.26,85,0.29567,179.67,185.17,69.706,0.32823,179.67,77.353,202.94,0.31175,cubic,0,8.937908899,H1a
mp-865163,HfBeRh2,HfBeRh2,213.33,181.46,66.8,0.35823,213.33,179.03,65.812,0.36014,213.33,66.306,180.24,0.35918,cubic,0,11.27535005,H1a
mvc-5863,Mg2TaWO6,Mg2TaWO6,163.78,218.41,85.467,0.27774,162.52,208.43,81.022,0.28626,163.15,83.245,213.43,0.28197,trigonal,2.6772,7.284200828,H2
mp-753890,Ni2H,Ni2H,196.44,196.92,73.867,0.33293,196.43,185.72,69.175,0.34241,196.44,71.521,191.34,0.33766,trigonal,0,8.335112372,H2
mp-867273,Be2CuIr,Be2CuIr,189,214,81.6,0.31129,189,178.12,66.316,0.34293,189,73.958,196.27,0.32692,cubic,0,10.92221879,H1a
mp-4673,SrHfO3,SrHfO3,154.89,221.4,87.733,0.26177,154.08,215.32,84.966,0.26709,154.48,86.35,218.36,0.26442,orthorhombic,3.9551,7.493681955,H2
mp-505216,Gd2Ru2O7,Gd2Ru2O7,167.67,210.19,81.4,0.29107,167.67,210.08,81.352,0.29117,167.67,81.376,210.13,0.29112,cubic,0,7.638849269,H1a
mp-19009,NiO,NiO,204.67,189.96,70.6,0.34531,204.67,181.27,67.019,0.35239,204.67,68.809,185.63,0.34884,cubic,2.4141,6.617519556,H2
mp-1029374,BaTiN2,BaTiN2,145.78,227.76,91.867,0.23961,144.3,219.87,88.225,0.24605,145.04,90.046,223.82,0.2428,hexagonal,0,6.192765987,H4
mp-7557,Nb5SiSn2,Nb5SiSn2,162.11,216.34,84.667,0.27758,162.1,210.34,81.926,0.28374,162.11,83.296,213.35,0.28065,tetragonal,0,8.235170151,H4
mp-4699,NaTaO3,NaTaO3,130.78,243.36,102.27,0.18985,128.28,221.29,91.255,0.21249,129.53,96.761,232.41,0.20095,orthorhombic,2.389,6.857101884,H2
mp-865032,Mn2PtRh,Mn2PtRh,175,213.22,82.2,0.29694,175,196.69,74.918,0.31268,175,78.559,205,0.30476,cubic,0,11.50127703,H1a
mp-866116,HoTaRu2,HoTaRu2,182.33,209.38,80,0.30861,182.33,190.93,72.022,0.32548,182.33,76.011,200.21,0.31699,cubic,0,13.05347707,H1a
mp-30777,MgPt3,MgPt3,182.56,211.08,80.733,0.30729,182.55,188.68,71.055,0.32774,182.56,75.894,199.97,0.31743,cubic,0,16.21368553,H1a
mp-1018082,CrCo2Sb,CrCo2Sb,172,218.05,84.6,0.28871,172,194.95,74.346,0.3111,172,79.473,206.6,0.29981,cubic,0,8.923198641,H1a
mp-1009130,MnN,MnN,239,161.49,58.2,0.38738,239,160.36,57.761,0.38817,239,57.981,160.93,0.38778,cubic,0.0945,5.922482414,H5
mp-1018157,CrN,CrN,205.33,198.19,74,0.33913,205.33,170.17,62.476,0.36188,205.33,68.238,184.3,0.35041,cubic,0,5.146222344,H1a
mp-890,NdIr2,NdIr2,180.33,203.6,77.6,0.31183,180.33,198.44,75.359,0.3166,180.33,76.48,201.02,0.31421,cubic,0,15.3966452,H1a
mp-685036,Al2O3,Al2O3,156.11,255.84,104.27,0.22686,135.78,188.47,74.281,0.26865,145.94,89.274,222.46,0.24595,triclinic,3.2994,3.573288354,H5
mp-865155,MgAlRh2,MgAlRh2,157.33,215.66,84.8,0.27155,157.33,215.47,84.713,0.27175,157.33,84.757,215.56,0.27165,cubic,0,7.496092323,H1a
mp-866087,MgSiRh2,MgSiRh2,177,204.03,78,0.30788,177,201.97,77.098,0.30982,177,77.549,203,0.30885,cubic,0,7.866936649,H1a
mp-1922,RuSe2,RuSe2,138,232.6,95.4,0.21908,138,220.75,89.489,0.23339,138,92.444,226.71,0.2262,cubic,0.4791,7.930413628,H5
mp-631425,FeTc2Cl,FeTc2Cl,161.67,213.05,83.2,0.28036,161.67,211.59,82.532,0.28187,161.67,82.866,212.32,0.28111,cubic,0,8.844125376,H1a
mp-351,SiNi,SiNi,165.44,238.09,94.467,0.26016,162.68,182.27,69.395,0.31327,164.06,81.931,210.72,0.28594,orthorhombic,0,5.981087135,H4
mp-790,LuPt3,LuPt3,183.67,201.75,76.6,0.31692,183.67,194.14,73.324,0.32383,183.67,74.962,197.95,0.32037,cubic,0,18.61637145,H1a
mp-1913,ErPt3,ErPt3,177.67,206.41,79,0.30637,177.67,197.05,74.917,0.31515,177.67,76.958,201.75,0.31075,cubic,0,18.09161781,H1a
mp-862316,LiBePt2,LiBePt2,165,211.48,82.2,0.28638,165,208.25,80.737,0.28965,165,81.469,209.87,0.28801,cubic,0,14.13037936,H1a
mp-552588,LiNbO3,LiNbO3,141.89,231.66,94.333,0.22788,141.86,216.02,86.671,0.2462,141.87,90.502,223.9,0.23697,trigonal,2.4628,4.405933344,H2
mp-849388,V2O3F,V2O3F,173.67,233.71,91.6,0.27571,166.85,178.34,67.457,0.32185,170.26,79.529,206.44,0.29791,monoclinic,0.0014,4.257385179,H4
mp-865531,TiMn2Al,TiMn2Al,157,217.74,85.8,0.26886,157,211.69,82.999,0.27527,157,84.399,214.72,0.27206,cubic,0,5.794348503,H1a
mp-9437,NbFeSb,NbFeSb,166.33,213.49,83,0.28608,166.33,204.12,78.78,0.29548,166.33,80.89,208.82,0.29076,cubic,0.743,8.448734024,H5
mp-6223,DyNi2B2C,DyNi2B2C,195.11,198.66,74.667,0.3303,193.55,182.2,67.827,0.34311,194.33,71.247,190.46,0.33665,tetragonal,0,8.000363691,H4
mp-31120,DyScO3,DyScO3,167.56,213.12,82.733,0.28801,161.49,206.73,80.337,0.28664,164.52,81.535,209.93,0.28734,orthorhombic,4.4598,6.776053477,H2
mp-31119,TbScO3,TbScO3,167,212.73,82.6,0.2877,161.74,207.3,80.577,0.28638,164.37,81.588,210.02,0.28705,orthorhombic,4.4378,6.630003241,H2
mp-977573,HfH3,HfH3,131.67,239.39,100,0.19697,131.67,219.27,89.684,0.22245,131.67,94.842,229.44,0.20957,cubic,0,10.27026527,H1a
mp-567580,PaC,PaC,171.67,206.83,79.6,0.29919,171.67,203.85,78.278,0.30209,171.67,78.939,205.34,0.30064,cubic,0,12.35551751,H1a
mp-22440,LuSiIr,LuSiIr,155,220.29,87.2,0.26313,154.88,211.29,83.015,0.27262,154.94,85.107,215.81,0.26786,orthorhombic,0,12.62227299,H4
mp-3933,Mg2PN3,Mg2PN3,152.67,226.08,90.2,0.25319,147.97,211.05,83.599,0.26229,150.32,86.9,218.58,0.25765,orthorhombic,3.5372,3.045475795,H2
mp-22489,HfCuSi,HfCuSi,155.33,219.09,86.6,0.26493,154.69,212.3,83.499,0.27127,155.01,85.05,215.7,0.26808,orthorhombic,0,9.807822706,H4
mp-18848,Sr2MgWO6,Sr2MgWO6,179,201.57,76.8,0.31232,179,199.13,75.738,0.31459,179,76.269,200.35,0.31345,cubic,3.2655,6.151227042,H2
mp-643945,TiFeH2,TiFeH2,186,198.34,75,0.32227,185.73,193.05,72.753,0.32676,185.87,73.877,195.7,0.32451,orthorhombic,0,5.844930777,H4
mp-861672,Ti2FeIr,Ti2FeIr,190.67,192.8,72.4,0.33147,190.67,191.73,71.947,0.33241,190.67,72.174,192.26,0.33194,cubic,0,9.950049224,H1a
mp-18427,Nb2Al,Nb2Al,160.56,213.13,83.333,0.27876,160.4,210.57,82.177,0.2812,160.48,82.755,211.85,0.27998,tetragonal,0,6.789453836,H4
mp-6092,TbNi2B2C,TbNi2B2C,186,203.45,77.2,0.3177,185.95,187.21,70.263,0.33221,185.97,73.731,195.37,0.32491,tetragonal,0,7.858244683,H4
mp-4355,YTiO3,YTiO3,185.44,201.68,76.467,0.31874,177.35,195.05,74.067,0.31671,181.4,75.267,198.37,0.31775,orthorhombic,0,5.211419462,H4
mp-865130,Hf2MoRh,Hf2MoRh,174.33,209.51,80.6,0.2997,174.33,196.39,74.828,0.31225,174.33,77.714,202.98,0.30595,cubic,0,13.09614666,H1a
mp-333,HfFe2,HfFe2,162.33,212.74,83,0.28158,162.33,208.52,81.077,0.28592,162.33,82.038,210.63,0.28374,cubic,0,11.26568938,H1a
mp-1021323,LiC12,LiC12,235.67,446.65,188.6,0.18412,14.472,17.116,6.5686,0.30288,125.07,97.584,232.33,0.1904,hexagonal,0,2.019463894,H4
mp-8846,Ba3Nb5O15,Ba3Nb5O15,156.22,222.55,88.133,0.26257,154.36,207.26,81.199,0.27622,155.29,84.666,214.94,0.26932,tetragonal,0,5.572765817,H4
mp-11562,TbRh5,TbRh5,188.44,197.4,74.467,0.32541,186.88,190.75,71.717,0.32988,187.66,73.092,194.08,0.32764,hexagonal,0,10.80172932,H4
mp-2554,Al3V,Al3V,120,239.17,102.4,0.16782,119.97,230.19,97.523,0.18021,119.99,99.961,234.71,0.17398,tetragonal,0,3.714657278,H4
mp-1025370,InSiPt5,InSiPt5,227.11,182.67,66.867,0.36594,226.97,151.03,54.364,0.38909,227.04,60.615,166.99,0.37742,tetragonal,0,16.23156435,H4
mp-505540,TiAsRh,TiAsRh,179.44,202.25,77.067,0.31215,177.55,197.7,75.204,0.31442,178.5,76.135,199.97,0.31328,orthorhombic,0,8.16351407,H4
mp-866138,LuSbRu2,LuSbRu2,157.67,214.86,84.4,0.27287,157.67,211.64,82.912,0.27628,157.67,83.656,213.25,0.27457,cubic,0,12.03403767,H1a
mp-20145,TiGaCo2,TiGaCo2,185.33,216.66,83,0.30516,185.33,173.59,64.584,0.3439,185.33,73.792,195.44,0.32425,cubic,0,7.864805559,H1a
mp-30620,DyRh5,DyRh5,188.78,197.44,74.467,0.32569,186.27,190.42,71.605,0.32963,187.53,73.036,193.93,0.32764,hexagonal,0,10.8966477,H4
mp-1014246,ZrB,ZrB,166.56,228.65,89.933,0.2712,165.34,186.5,71.075,0.312,165.95,80.504,207.89,0.2912,hexagonal,0,5.71481239,H4
mp-865591,Ti2NiMo,Ti2NiMo,170.33,206.17,79.4,0.29827,170.33,203.94,78.412,0.30045,170.33,78.906,205.05,0.29936,cubic,0,7.112101631,H1a
mp-739,TiP,TiP,138.78,234.17,96.067,0.21877,137.66,214.82,86.626,0.23992,138.22,91.346,224.57,0.22921,hexagonal,0,4.219611441,H4
mp-1008987,IrN,IrN,264.33,144.28,51.2,0.40903,264.33,136.02,48.089,0.41424,264.33,49.644,140.16,0.41163,cubic,0,13.65932116,H1a
mp-7748,NaAlO2,NaAlO2,135,234.77,97,0.21016,131.41,219.93,90.059,0.22105,133.2,93.53,227.37,0.21551,trigonal,4.8051,3.485224452,H2
mp-867748,ScSnRu2,ScSnRu2,170.67,206.67,79.6,0.29817,170.67,202.68,77.83,0.30207,170.67,78.715,204.68,0.30012,cubic,0,9.129827136,H1a
mp-873,VPd3,VPd3,177.56,219.76,84.933,0.29372,177.55,180.06,67.642,0.33098,177.56,76.288,200.19,0.31208,tetragonal,0,10.39870408,H4
mp-570102,HoSiRu2C,HoSiRu2C,178.44,205.76,78.667,0.30782,174.65,195.71,74.514,0.31323,176.55,76.59,200.74,0.31049,orthorhombic,0,8.950757901,H4
mp-30337,Al5W,Al5W,124,232.7,98,0.18723,123.84,231.69,97.497,0.18819,123.92,97.748,232.19,0.18771,hexagonal,0,5.700302322,H4
mp-10904,AlPt,AlPt,184.33,195.8,74,0.32297,184.33,195.38,73.821,0.32334,184.33,73.911,195.59,0.32316,cubic,0,12.40425435,H1a
mp-10371,Cr2GaN,Cr2GaN,172.56,205.92,79.133,0.30111,170.14,202.1,77.609,0.30202,171.35,78.371,204.01,0.30156,hexagonal,0,6.818051388,H4
mp-839,V3Au,V3Au,186.67,207.7,79,0.31455,186.67,179.95,67.178,0.33933,186.67,73.089,193.95,0.32683,cubic,0,9.989346931,H1a
mp-16356,TiNiGe,TiNiGe,157.89,216.06,84.933,0.27193,156.94,209.53,82.007,0.27749,157.41,83.47,212.8,0.27469,orthorhombic,0,7.085255009,H4
mp-999441,Nb3Cr,Nb3Cr,199.67,119.31,42.6,0.40041,199.62,246.08,95.043,0.29454,199.64,68.822,185.19,0.3454,tetragonal,0,8.000342246,H4
mp-1009787,RuC,RuC,312.33,145.64,51.2,0.42228,312.33,62.942,21.461,0.46641,312.33,36.331,104.92,0.44401,cubic,0,9.303950816,H1a
mp-865537,TiMnCo2,TiMnCo2,172.67,212.38,82,0.295,172.67,193.48,73.667,0.31324,172.67,77.833,203,0.30406,cubic,0,7.350147653,H1a
mp-17848,Nb3Si,Nb3Si,184.22,201.21,76.333,0.31797,183.86,189.78,71.455,0.32796,184.04,73.894,195.52,0.32294,tetragonal,0,7.397881014,H4
mp-569249,Ta3Au,Ta3Au,203,213.07,80.4,0.32507,203,151.26,54.97,0.37581,203,67.685,182.74,0.34996,cubic,0,17.01653348,H1a
mp-29066,Al3Fe2Si3,Al3Fe2Si3,144.67,226.09,91.2,0.23953,142.3,215.94,86.579,0.24708,143.48,88.89,221.03,0.24326,monoclinic,0,4.292779705,H4
mp-4387,SrZrO3,SrZrO3,146.33,221.58,88.8,0.24763,145.35,217.59,87,0.2505,145.84,87.9,219.58,0.24906,orthorhombic,3.6257,5.252253718,H2
mp-546973,SrSnO3,SrSnO3,144.33,221.48,89,0.24425,144.33,219.34,87.968,0.24672,144.33,88.484,220.41,0.24548,cubic,1.031,6.06148089,H5
mp-20315,Ti2InC,Ti2InC,127.44,231.86,96.867,0.19679,126.43,228.51,95.31,0.19877,126.94,96.088,230.18,0.19777,hexagonal,0,6.06319056,H4
mp-22769,TiCoGe,TiCoGe,171.44,207.4,79.867,0.29838,171.11,199.93,76.586,0.30526,171.28,78.227,203.67,0.30181,hexagonal,0,7.190857086,H4
mp-1025030,ErPt5,ErPt5,187.78,196.38,74.067,0.3257,187.3,189.5,71.166,0.33138,187.54,72.617,192.95,0.32853,hexagonal,0,17.17661898,H4
mp-30842,ZrPd3,ZrPd3,168.67,206.79,79.8,0.29566,168.66,203.76,78.452,0.29865,168.66,79.126,205.28,0.29715,hexagonal,0,10.30918231,H4
mp-977138,NaTc3,NaTc3,192.44,192.68,72.267,0.33313,192.44,186.54,69.683,0.33845,192.44,70.975,189.61,0.33578,cubic,0,8.73184924,H1a
mp-216,Sc2O3,Sc2O3,167.67,206.17,79.6,0.29506,167.67,205.33,79.225,0.29589,167.67,79.412,205.75,0.29547,cubic,3.814,3.750786446,H2
mp-1008275,Cr3Ni,Cr3Ni,123.67,237.42,100.6,0.18003,123.67,225.74,94.389,0.19577,123.67,97.495,231.62,0.18785,cubic,0,7.462201546,H1a
mp-1069,HfSi2,HfSi2,134,232.87,96.2,0.21036,130.05,221.42,91.028,0.21623,132.02,93.614,227.15,0.21324,orthorhombic,0,7.923770468,H4
mp-3576,HfGaCo2,HfGaCo2,174.33,205.45,78.8,0.30359,174.33,197.19,75.18,0.31148,174.33,76.99,201.33,0.30752,cubic,0,11.08926124,H1a
mp-775331,LiVO2,LiVO2,143.78,236.51,96.467,0.22584,124.39,215.23,88.821,0.21162,134.09,92.644,225.9,0.21921,orthorhombic,1.4973,3.978178931,H2
mp-755465,Hg2Pt2O7,Hg2Pt2O7,192.33,192.51,72.2,0.33318,192.33,186.28,69.581,0.33858,192.33,70.89,189.4,0.33587,cubic,0,10.78889137,H1a
mp-31017,Ce4B2N5,Ce4B2N5,141.11,225.65,91.467,0.23349,138.4,219.62,88.876,0.23553,139.76,90.171,222.63,0.2345,monoclinic,0,7.305831783,H4
mp-9939,Hf2Ge,Hf2Ge,132.56,228.35,94.133,0.21289,132.55,225.05,92.456,0.21704,132.55,93.295,226.7,0.21496,tetragonal,0,12.21434273,H4
mp-2930,Mn3ZnC,Mn3ZnC,192.33,191.56,71.8,0.334,192.33,187.09,69.922,0.33787,192.33,70.861,189.33,0.33593,cubic,0,6.910162174,H1a
mp-7916,HfSiS,HfSiS,135.56,228.53,93.733,0.21902,134.95,221.79,90.448,0.22607,135.25,92.091,225.17,0.22253,tetragonal,0,7.898134927,H4
mp-427,FeAs,FeAs,166.33,228.31,89.8,0.27123,159.76,188.21,72.187,0.30365,163.05,80.993,208.46,0.28691,orthorhombic,0,8.093740435,H4
mvc-11012,La2MgTiO6,La2MgTiO6,150.67,217.18,86.2,0.25975,150.08,215.43,85.435,0.26077,150.37,85.817,216.3,0.26026,trigonal,0,5.950654135,H2
mp-3871,Ti2SnC,Ti2SnC,135.56,224.95,91.933,0.22343,135.46,224.75,91.848,0.22347,135.51,91.891,224.85,0.22345,hexagonal,0,6.244640857,H4
mp-21255,FeGe,FeGe,154,215.8,85.2,0.26645,154,211.95,83.406,0.27061,154,84.303,213.88,0.26853,cubic,0.0989,8.376045531,H5
mp-11565,YRh5,YRh5,178.44,202.1,77.067,0.31123,176.79,195.56,74.321,0.31564,177.62,75.694,198.84,0.31342,hexagonal,0,9.680709422,H4
mp-4767,Ce(SiOs)2,Ce(SiOs)2,161.33,212.11,82.8,0.28088,160.53,206.83,80.464,0.28526,160.93,81.632,209.48,0.28306,tetragonal,0,11.11181445,H4
mp-977436,ZrAlRu2,ZrAlRu2,202.33,183.45,68,0.34889,202.33,180.95,66.972,0.35095,202.33,67.486,182.2,0.34992,cubic,0,8.467488675,H1a
mp-4753,Al2SiO5,Al2SiO5,145.56,224.14,90.133,0.24336,139.45,217.03,87.469,0.24061,142.5,88.801,220.58,0.24201,orthorhombic,4.8382,3.050819942,H2
mp-31118,SmScO3,SmScO3,163,210.23,81.8,0.28504,160.49,207.14,80.608,0.28488,161.75,81.204,208.69,0.28496,orthorhombic,4.3594,6.224039879,H2
mp-24719,NiH,NiH,199.33,186.07,69.2,0.34442,199.33,181.74,67.407,0.34805,199.33,68.304,183.91,0.34623,cubic,0,7.751649993,H1a
mp-865,CaB6,CaB6,149.33,264.95,110,0.2043,149.33,163,61.833,0.31808,149.33,85.917,216.27,0.25862,cubic,0.1835,2.437995559,H5
mp-631303,InReGe,InReGe,209.67,183.12,67.6,0.35444,209.67,170.43,62.45,0.36452,209.67,65.025,176.8,0.35946,cubic,0,10.14449225,H1a
mp-2351,TmPt3,TmPt3,177.67,202.3,77.2,0.31023,177.67,194.31,73.729,0.31772,177.67,75.464,198.31,0.31396,cubic,0,18.26313771,H1a
mp-8208,Mg(PtO2)3,Mg(PtO2)3,189.33,206.67,78.4,0.31807,189.04,174.25,64.709,0.34637,189.19,71.555,190.63,0.33206,orthorhombic,0.3594,10.06177067,H2
mp-978261,MnBe2Co,MnBe2Co,129,247.77,105,0.17988,129,207.06,84,0.23248,129,94.5,227.86,0.20561,cubic,0,5.861189513,H1a
mp-755342,LuGaO3,LuGaO3,165.78,213.09,82.867,0.28576,165.7,198.47,76.311,0.30038,165.74,79.589,205.82,0.29303,hexagonal,2.5876,8.019411365,H1b
mp-571586,Nd(SiOs)2,Nd(SiOs)2,146.33,221.58,88.8,0.24763,144.98,214.8,85.709,0.25307,145.66,87.255,218.19,0.25033,tetragonal,0,10.97301009,H4
mp-1187,ThIr2,ThIr2,201.33,190.6,71,0.34222,201.33,173.76,64.064,0.35616,201.33,67.532,182.22,0.34915,cubic,0,17.82929828,H1a
mp-430,TiO2,TiO2,158.22,228.94,90.933,0.25884,144.95,200.09,78.781,0.26992,151.58,84.857,214.54,0.26412,monoclinic,2.2317,4.434971704,H2
mp-2363,HfMo2,HfMo2,200,184.2,68.4,0.3465,200,181.77,67.396,0.34852,200,67.898,182.99,0.34751,cubic,0,11.27480816,H1a
mp-972238,Ti2VIr,Ti2VIr,179.33,196.55,74.6,0.31734,179.33,196.53,74.593,0.31735,179.33,74.596,196.54,0.31734,cubic,0,9.35310705,H1a
mp-7070,Mn3PtN,Mn3PtN,172.33,201.06,77,0.30556,172.33,201.06,77,0.30556,172.33,77,201.06,0.30556,cubic,0,10.11286267,H1a
mp-1018124,Ti2Rh,Ti2Rh,157.22,212.9,83.533,0.27432,157.22,208.42,81.476,0.27905,157.22,82.505,210.66,0.27668,tetragonal,0,7.088660567,H4
mp-760401,Nb3O7F,Nb3O7F,189.11,239.41,92.867,0.289,189.08,137.09,49.7,0.37916,189.1,71.283,189.98,0.33256,orthorhombic,0.8754,4.147533186,H2
mp-979751,TaTiFe2,TaTiFe2,187,191.43,72,0.32938,187,191,71.816,0.32977,187,71.908,191.21,0.32958,cubic,0,10.32070926,H1a
mp-644280,GaCuPt2,GaCuPt2,186.67,197.49,74.6,0.32367,186.49,185.37,69.461,0.33433,186.58,72.031,191.45,0.32898,tetragonal,0,15.04841409,H4
mp-20840,MnCo2Sn,MnCo2Sn,168,217.32,84.6,0.2844,168,189.61,72.265,0.3119,168,78.433,203.61,0.298,cubic,0,9.005010907,H1a
mp-13,Fe,Fe,182.33,203.88,77.6,0.31364,182.33,184.49,69.286,0.33136,182.33,73.443,194.25,0.32244,cubic,0,8.096264696,H1a
mp-1016873,CaHfO3,CaHfO3,136.67,236.5,97.6,0.21158,136.67,208.33,83.604,0.24594,136.67,90.602,222.61,0.22852,cubic,3.7158,6.398584471,H2