Material_ID,Formula,pretty_formula,KV ,EV ,GV ,PV ,KR ,ER ,GR ,PR ,bulk,shear,young,poisson,csyst,gap,density,y_cla
mp-997618,BSb,BSb,99.333,200.22,86,0.16406,99.333,193.43,82.278,0.17545,99.333,84.139,196.84,0.16973,cubic,1.0137,5.974007196,H5
mp-863727,LiTiRh2,LiTiRh2,153.67,164.42,62.2,0.32167,153.67,164.15,62.085,0.32196,153.67,62.143,164.28,0.32182,cubic,0,7.881916491,H1a
mp-861935,CaSnRh2,CaSnRh2,144.33,170.91,65.6,0.30265,144.33,169.87,65.142,0.30385,144.33,65.371,170.39,0.30325,cubic,0,8.403265859,H1a
mp-546125,ScAsO4,ScAsO4,146,184.62,71.6,0.28925,134.83,161.05,61.896,0.30092,140.41,66.748,172.85,0.29483,tetragonal,3.5513,4.237270005,H4
mp-3088,LaBRh3,LaBRh3,153,171.73,65.4,0.31293,153,157.48,59.271,0.32845,153,62.336,164.65,0.32065,cubic,0,9.639874315,H1a
mp-11775,RbUO3,RbUO3,136.67,182,71.2,0.27805,136.67,168.34,65.012,0.2947,136.67,68.106,175.21,0.28633,cubic,0.5077,7.436880894,H5
mp-10390,Ta2O5,Ta2O5,136.67,191.92,75.8,0.26595,121.37,168.03,66.19,0.26927,129.02,70.995,179.97,0.26751,monoclinic,3.1007,8.433246764,H2
mp-4079,Sc3AlC,Sc3AlC,102,195.5,82.8,0.18056,102,195.02,82.544,0.18133,102,82.672,195.26,0.18094,cubic,0,3.142635996,H1a
mp-11318,CePt3,CePt3,162,158.79,59.4,0.33663,162,158.38,59.225,0.33706,162,59.313,158.58,0.33685,cubic,0,16.5712969,H1a
mp-11597,NdBPt3,NdBPt3,160.22,166.47,62.733,0.32683,159.64,153.39,57.242,0.33986,159.93,59.988,159.96,0.3333,tetragonal,0,14.69355955,H4
mp-972793,Si2B2O5,Si2B2O5,162.11,142.07,52.467,0.35393,158.24,176.84,67.305,0.31373,160.17,59.886,159.75,0.33377,tetragonal,0,3.321345221,H4
mp-570436,CaIr2,CaIr2,162.67,162.67,61,0.33333,162.67,153.29,57.073,0.34294,162.67,59.036,158,0.33812,cubic,0,12.88243981,H1a
mp-30865,TmRh2,TmRh2,156.67,168.99,64,0.32022,156.67,154.95,58.027,0.33516,156.67,61.013,162.01,0.32765,cubic,0,11.73138393,H1a
mp-975255,RbPdO3,RbPdO3,161.44,159.37,59.667,0.33548,161.44,158.2,59.176,0.33668,161.44,59.422,158.78,0.33608,cubic,0,5.661576907,H1a
mp-375,UO3,UO3,150,218.72,87,0.25698,150,108.93,39.498,0.37896,150,63.249,166.36,0.31515,cubic,1.6463,6.57468245,H5
mp-1019086,CN2,CN2,155.22,382.44,175.53,0.089364,10.77,24.331,10.828,0.12347,82.996,93.181,203.42,0.091513,tetragonal,4.7919,2.550627783,H4
mp-862712,Sc2CoIr,Sc2CoIr,142.67,171.1,65.8,0.30012,142.67,171.09,65.799,0.30012,142.67,65.8,171.09,0.30012,cubic,0,8.770543102,H1a
mp-7187,TiAlNi2,TiAlNi2,162,178.5,67.8,0.31636,162,137.35,50.543,0.3587,162,59.172,158.25,0.33719,cubic,0,6.253223327,H1a
mp-2339,Ti3Pt,Ti3Pt,166.33,156.84,58.4,0.34284,166.33,153.66,57.077,0.34604,166.33,57.739,155.25,0.34444,cubic,0,8.766699056,H1a
mp-1016840,HgOsO3,HgOsO3,167.33,165.55,62,0.33511,167.33,143.4,52.83,0.35717,167.33,57.415,154.57,0.34605,cubic,0,11.78187775,H1a
mp-999287,PrRhC2,PrRhC2,143.67,183.32,71.2,0.28734,124.6,169.31,66.474,0.27352,134.13,68.837,176.34,0.28088,orthorhombic,0,7.475441389,H4
mp-770635,LiNiO2,LiNiO2,119,192.45,78.2,0.23047,109.44,183.81,75.326,0.22008,114.22,76.763,188.14,0.22547,tetragonal,0,4.676030484,H4
mp-20238,Th(FeGe)2,Th(FeGe)2,126.67,184.97,73.6,0.25661,124.55,177.84,70.457,0.26203,125.61,72.028,181.41,0.25929,tetragonal,0,9.659942018,H4
mp-8582,Eu(PRh)2,Eu(PRh)2,132.67,182.48,71.8,0.27075,130.06,173.01,67.671,0.27831,131.37,69.735,177.75,0.27448,tetragonal,0,8.528885205,H4
mp-971864,U2Ga2O5,U2Ga2O5,151.44,169.83,64.667,0.3131,150.31,160.6,60.747,0.32191,150.87,62.707,165.23,0.31748,tetragonal,0,10.43619916,H4
mp-1009582,NiC,NiC,283.67,71.16,24.4,0.45819,283.67,70.202,24.062,0.45875,283.67,24.231,70.681,0.45847,cubic,0,6.98159861,H1a
mp-546,HoRh2,HoRh2,157.67,164.91,62.2,0.32567,157.67,156.16,58.49,0.33493,157.67,60.345,160.55,0.33028,cubic,0,11.46927477,H1a
mp-9550,ScMnSi,ScMnSi,119.44,196.73,80.267,0.22549,116.79,173.8,69.41,0.25198,118.12,74.838,185.37,0.23845,hexagonal,0,4.506017839,H4
mp-2960,HfSnRh,HfSnRh,148.67,170.65,65.2,0.30869,145.34,164.21,62.594,0.3117,147,63.897,167.43,0.31017,hexagonal,0,11.64392805,H4
mp-865797,LuCo2Sn,LuCo2Sn,140,172.45,66.6,0.2947,140,171.44,66.149,0.2959,140,66.375,171.95,0.2953,cubic,0,10.67590682,H1a
mp-551918,AlBiO3,AlBiO3,131.33,201.15,80.8,0.24473,124.76,157.09,60.882,0.29014,128.05,70.841,179.43,0.26645,trigonal,3.0207,8.296037246,H2
mp-4692,Dy(SiNi)2,Dy(SiNi)2,120.78,186.96,75.267,0.242,120.55,180.75,72.293,0.25011,120.67,73.78,183.87,0.24604,tetragonal,0,7.46352327,H4
mp-10463,YCo4B,YCo4B,165.22,157.05,58.533,0.34157,162.52,155.33,57.927,0.34071,163.87,58.23,156.19,0.34115,hexagonal,0,7.483549477,H4
mp-866022,CdPt3,CdPt3,192,145.1,52.8,0.37405,192,128.26,46.182,0.38866,192,49.491,136.72,0.38132,cubic,0,17.45456613,H1a
mp-568505,As4C3,As4C3,112,188.73,77.4,0.21916,112,188.72,77.397,0.21917,112,77.398,188.72,0.21916,cubic,0.097,5.69658868,H5
mp-279,LiIr,LiIr,157.67,211.39,82.8,0.27654,130.54,125.64,46.895,0.33959,144.1,64.847,169.17,0.30435,hexagonal,0,12.14154153,H4
mp-865424,CsUO3,CsUO3,129,182.12,72,0.26471,129,175.18,68.771,0.27367,129,70.385,178.66,0.26917,cubic,0.5027,8.081229652,H5
mp-22079,AsRh,AsRh,156.67,163.85,61.8,0.32569,155.74,158.3,59.486,0.33059,156.2,60.643,161.08,0.32813,orthorhombic,0,9.196489436,H4
mp-10125,SbIr,SbIr,160.89,166.08,62.533,0.32795,159.45,150.36,55.985,0.34283,160.17,59.259,158.26,0.33532,hexagonal,0,13.02801846,H4
mp-921,YRh2,YRh2,152.33,167.95,63.8,0.31624,152.33,158.95,59.931,0.3261,152.33,61.865,163.47,0.32115,cubic,0,9.009607652,H1a
mp-999355,NbN,NbN,236.89,121.46,42.933,0.41454,209.49,106.8,37.736,0.41504,223.19,40.335,114.13,0.41477,hexagonal,0,6.598441819,H4
mp-1019097,SiC2,SiC2,168.22,212.36,82.333,0.28961,153.37,99.52,35.751,0.39185,160.79,59.042,157.81,0.33643,tetragonal,0,2.47823236,H4
mp-11416,TaGa3,TaGa3,106.33,194.94,81.6,0.19446,105.84,188.27,78.219,0.20351,106.08,79.909,191.62,0.19896,tetragonal,0,10.06594108,H4
mp-568718,HfAl3,HfAl3,106.11,192.69,80.467,0.19734,105.97,190.56,79.379,0.2003,106.04,79.923,191.63,0.19882,tetragonal,0,6.258946848,H4
mp-5541,ZrVSi,ZrVSi,156.22,233.08,93.133,0.25133,155.99,79.291,28.012,0.41528,156.11,60.573,160.91,0.32821,tetragonal,0,5.727370949,H4
mp-19050,Ca2MnO4,Ca2MnO4,133,179.96,70.6,0.27449,131.96,172.31,67.186,0.28236,132.48,68.893,176.15,0.2784,tetragonal,0.375,3.92986826,H1a
mp-31055,Sc3InN,Sc3InN,103.33,193.04,81.2,0.18865,103.33,192.92,81.139,0.18883,103.33,81.17,192.98,0.18874,cubic,0,4.887453731,H1a
mp-7986,CaSnO3,CaSnO3,94,205.71,90.6,0.13527,94,188.94,81.093,0.16499,94,85.846,197.44,0.14994,cubic,1.4519,5.106609752,H5
mp-924128,HfNiSn,HfNiSn,105,192.15,80.4,0.19499,105,191.75,80.189,0.19563,105,80.294,191.95,0.19531,cubic,0.4347,10.34045818,H5
mp-8002,LiGaO2,LiGaO2,118.11,205.4,84.867,0.21015,109.12,168.73,67.912,0.24229,113.62,76.389,187.21,0.22538,trigonal,3.8248,4.899986394,H2
mp-22784,InNi3,InNi3,150,180.83,69.6,0.29908,150,148.02,55.415,0.33554,150,62.507,164.65,0.31705,cubic,0,9.311045999,H1a
mp-16297,Sc3SnC,Sc3SnC,102.33,193.77,81.8,0.18441,102.33,192.65,81.204,0.18623,102.33,81.502,193.21,0.18532,cubic,0,4.725012161,H1a
mp-9595,NbInO4,NbInO4,161.89,162.9,61.133,0.3323,160.27,151.43,56.396,0.34253,161.08,58.765,157.18,0.33737,monoclinic,3.0647,5.954351224,H2
mp-2370,PrNi5,PrNi5,151.33,165.97,63,0.31721,151.26,161.28,60.983,0.3223,151.3,61.992,163.63,0.31975,hexagonal,0,8.509952547,H4
mp-37906,LiMgN,LiMgN,98.333,201.92,87.2,0.15777,98.333,188.2,79.68,0.18101,98.333,83.44,195.13,0.16927,cubic,2.2707,2.387696644,H2
mp-865131,Hf2OsRh,Hf2OsRh,201.67,152.76,55.6,0.37375,201.67,104.31,36.891,0.41379,201.67,46.245,128.88,0.39348,cubic,0,15.49016945,H1a
mp-3390,Y(CuSi)2,Y(CuSi)2,117,187.01,75.8,0.2336,116.65,183.14,73.948,0.23833,116.83,74.874,185.08,0.23596,tetragonal,0,5.749098267,H4
mp-865174,HfCdRh2,HfCdRh2,163,166.02,62.4,0.33025,163,145.24,53.731,0.3515,163,58.066,155.71,0.34079,cubic,0,12.20158845,H1a
mp-3556,Tm2SO2,Tm2SO2,128.33,180.26,71.2,0.26589,128.09,176.28,69.368,0.27063,128.21,70.284,178.28,0.26825,trigonal,3.1396,8.430095389,H2
mp-18850,BaYMn2O5,BaYMn2O5,141.67,180.3,70,0.28788,136.97,162.01,62.173,0.30287,139.32,66.086,171.19,0.29521,tetragonal,0,5.611457429,H4
mp-811,BaPt5,BaPt5,150.89,168.52,64.133,0.31385,144.18,163.19,62.22,0.31136,147.53,63.177,165.86,0.31264,hexagonal,0,15.43776264,H4
mp-593,Al4Cu9,Al4Cu9,129.33,177.47,69.8,0.2713,129.33,177.32,69.731,0.27149,129.33,69.766,177.4,0.27139,cubic,0,6.853922942,H1a
mp-768305,Sr2HfO4,Sr2HfO4,123.44,184.75,73.867,0.25056,123.43,176.96,70.164,0.26106,123.44,72.015,180.87,0.25579,tetragonal,3.7158,6.382579615,H4
mp-2895,Mg2SiO4,Mg2SiO4,121.11,187.05,75.267,0.24259,117.23,179.59,72.144,0.24468,119.17,73.705,183.32,0.24361,orthorhombic,5.1786,3.11644027,H2
mp-38194,YOF,YOF,141.67,178.97,69.4,0.28944,141.67,159.63,60.824,0.3122,141.67,65.112,169.39,0.30072,cubic,5.6838,5.110313462,H2
mp-11596,PrBPt3,PrBPt3,155.56,166.36,62.933,0.32175,155.18,154.35,57.841,0.33423,155.37,60.387,160.38,0.32795,tetragonal,0,14.49680129,H4
mp-2874,In2Si2O7,In2Si2O7,153.44,167.79,63.667,0.31775,150.17,157.65,59.488,0.32503,151.81,61.578,162.73,0.32134,monoclinic,2.7065,4.835007939,H2
mp-4415,Ho(CoGe)2,Ho(CoGe)2,127.33,181.32,71.8,0.26267,127.11,175.53,69.113,0.26984,127.22,70.457,178.43,0.26624,tetragonal,0,9.004207559,H4
mp-867735,PrSmO2,PrSmO2,123.67,187.58,75.2,0.2472,120.44,175.5,69.8,0.25714,122.05,72.5,181.55,0.25209,trigonal,0,8.24046544,H2
mp-867850,ScMnRh2,ScMnRh2,151,164.54,62.4,0.31839,151,161.97,61.294,0.32123,151,61.847,163.25,0.31981,cubic,0,8.183531827,H1a
mp-861637,Ti2AlTc,Ti2AlTc,158,165.42,62.4,0.3255,158,151.68,56.597,0.34,158,59.499,158.59,0.33271,cubic,0,5.893566039,H1a
mp-1388,DyRh2,DyRh2,157.33,164.4,62,0.32584,157.33,153.61,57.432,0.33728,157.33,59.716,159.03,0.33154,cubic,0,11.33101947,H1a
mp-1919,ZrCr2,ZrCr2,179.56,149.55,54.933,0.36119,179.45,138.16,50.363,0.37168,179.5,52.648,143.88,0.36641,hexagonal,0,7.102195259,H4
mp-2301,NiP3,NiP3,115,186.03,75.6,0.23039,115,185.21,75.193,0.23158,115,75.396,185.62,0.23098,cubic,0,4.205088878,H1a
mp-19006,MnO,MnO,143,171.6,66,0.3,143,164.8,63,0.30793,143,64.5,168.21,0.30395,cubic,0.1993,5.190708253,H5
mp-862377,LiBe2Ir,LiBe2Ir,137.33,193.35,76.4,0.26536,137.33,149.39,56.643,0.3187,137.33,66.521,171.82,0.29148,cubic,0,8.665111014,H1a
mp-1025113,DyInPt4,DyInPt4,162.67,162.67,61,0.33333,162.67,147.54,54.692,0.34883,162.67,57.846,155.15,0.34104,cubic,0,15.71122698,H1a
mp-19005,Y6WO12,Y6WO12,141.78,172,66.267,0.2978,141.75,165.85,63.544,0.305,141.77,64.906,168.94,0.30139,trigonal,3.4709,5.691973627,H2
mp-249,HfAl,HfAl,117.22,191.39,77.933,0.22789,117.13,176.67,70.746,0.24861,117.17,74.34,184.09,0.23816,orthorhombic,0,8.963278337,H4
mp-999395,Nb3Fe,Nb3Fe,173,158.45,58.8,0.34735,173,137.42,50.24,0.36761,173,54.52,148.01,0.35741,cubic,0,8.559744898,H1a
mp-9631,AlAgO2,AlAgO2,156.22,208.35,81.533,0.27772,151.89,109.4,39.64,0.37996,154.06,60.587,160.69,0.32615,hexagonal,1.4276,6.05958675,H1a
mp-19870,GaFe3,GaFe3,174.67,201.86,77.2,0.30739,174.67,86.864,30.648,0.41711,174.67,53.924,146.68,0.36004,cubic,0,8.032436581,H1a
mp-2583,TiRh,TiRh,189.44,137.03,49.667,0.37945,189.23,135.77,49.177,0.38042,189.34,49.422,136.4,0.37993,tetragonal,0,8.321025549,H4
mp-3587,Sc(SiNi)2,Sc(SiNi)2,150.78,166.97,63.467,0.31543,146.78,161.13,61.172,0.31703,148.78,62.319,164.05,0.31622,tetragonal,0,5.206027849,H4
mp-15322,ScCuSi,ScCuSi,112.44,189.39,77.667,0.21928,111.85,183.74,74.922,0.22621,112.15,76.294,186.57,0.22272,hexagonal,0,4.842930503,H4
mp-567750,ScRu2,ScRu2,190.22,136.22,49.333,0.38065,189.44,135.57,49.093,0.38073,189.83,49.213,135.9,0.38069,hexagonal,0,8.261847236,H4
mp-866012,Hf2ZnRe,Hf2ZnRe,160,167.07,63,0.32597,160,145.62,54,0.34831,160,58.5,156.43,0.33705,cubic,0,14.06711319,H1a
mp-19035,BaFeO3,BaFeO3,116.33,186.82,75.8,0.23234,116.33,181.36,73.12,0.24017,116.33,74.46,184.1,0.23624,cubic,0,6.104829477,H1a
mp-761716,MnFe2O3,MnFe2O3,153.22,164.2,62.133,0.32139,150.67,159.32,60.178,0.32376,151.95,61.156,161.76,0.32256,orthorhombic,0.1738,5.404443071,H2
mp-5983,Tm(CoGe)2,Tm(CoGe)2,129.78,178.57,70.267,0.27067,129.36,173.45,67.937,0.27653,129.57,69.102,176.01,0.27359,tetragonal,0,9.193120009,H4
mp-1559,Mg3N2,Mg3N2,109.67,188.76,77.8,0.21313,109.67,186.7,76.752,0.21626,109.67,77.276,187.73,0.21469,cubic,1.5099,2.66192851,H5
mp-961649,ZrFeTe,ZrFeTe,113,189.04,77.4,0.22118,113,182.62,74.197,0.23065,113,75.799,185.84,0.2259,cubic,1.1967,7.947743287,H5
mp-8969,Mg2Ni3P,Mg2Ni3P,130.44,178.28,70.067,0.27221,129.21,173.3,67.883,0.27646,129.83,68.975,175.79,0.27433,trigonal,0,5.477005996,H2
mp-995,EuIr2,EuIr2,146.67,166.25,63.4,0.31108,146.63,163.7,62.296,0.31392,146.65,62.848,164.98,0.3125,cubic,0,15.78286006,H1a
mp-15297,Hf6NiSb2,Hf6NiSb2,126.89,179.8,71.133,0.26383,125.86,175.84,69.385,0.26715,126.38,70.259,177.82,0.26548,hexagonal,0,12.20988006,H4
mp-631571,Bi2OsAu,Bi2OsAu,106.67,17.09,5.8,0.4733,106.67,308.21,151.32,0.018425,106.67,78.558,189.22,0.20434,cubic,0,15.1799968,H1a
mp-976446,MgMnO3,MgMnO3,140.11,169.93,65.467,0.29786,140.11,168.45,64.809,0.29962,140.11,65.138,169.19,0.29874,cubic,0,4.052952306,H1a
mp-861943,BPt3,BPt3,183.89,48.157,16.533,0.45635,170.59,227.58,89.063,0.27765,177.24,52.798,144.09,0.36451,hexagonal,0,16.19529522,H4
mp-5497,Er(CoGe)2,Er(CoGe)2,127.22,179.88,71.133,0.26436,127.22,174.27,68.52,0.27169,127.22,69.827,177.08,0.26801,tetragonal,0,9.102768073,H4
mp-3444,ErTaO4,ErTaO4,146.78,184.02,71.267,0.29105,121.2,161.58,63.228,0.27779,133.99,67.247,172.83,0.28502,monoclinic,4.0463,9.223589422,H2
mp-1019584,CaAl2SiO6,CaAl2SiO6,130.67,185.9,73.6,0.26289,122.38,168.91,66.501,0.26997,126.52,70.051,177.41,0.2663,monoclinic,4.6117,3.319302729,H2
mp-29646,HfAs2,HfAs2,114.78,186.91,76.067,0.22859,114.66,181.9,73.61,0.23559,114.72,74.838,184.41,0.23208,orthorhombic,0,9.533367772,H4
mp-1003313,Li2Mn3O6,Li2Mn3O6,128.33,198.3,79.8,0.24247,107.45,166.8,67.188,0.24128,117.89,73.494,182.55,0.24193,monoclinic,0.0319,4.264488761,H4
mp-30563,ZrCoSn,ZrCoSn,138.33,175.72,68.2,0.28829,137.36,164.78,63.375,0.30006,137.85,65.787,170.27,0.29413,hexagonal,0,8.364350333,H4
mp-997181,VCuO2,VCuO2,149.89,225.67,90.333,0.24907,117.84,117.7,44.131,0.33354,133.87,67.232,172.77,0.2849,trigonal,0,5.261185682,H2
mp-978862,SrAlO3,SrAlO3,149.67,163.9,62.2,0.31749,149.67,161.15,61.018,0.32054,149.67,61.609,162.53,0.31901,cubic,0,4.78425504,H1a
mp-1029262,VZn2N3,VZn2N3,152.33,161.92,61.2,0.32285,152.05,159.77,60.297,0.32487,152.19,60.749,160.84,0.32386,orthorhombic,1.3256,5.218476284,H2
mp-866159,YZrRu2,YZrRu2,147.33,170,65,0.30769,147.33,157.88,59.74,0.3214,147.33,62.37,163.97,0.31451,cubic,0,8.501740139,H1a
mp-4105,Ho(CuSi)2,Ho(CuSi)2,116.11,186.49,75.667,0.23231,114.48,181.08,73.231,0.23637,115.29,74.449,183.79,0.23432,tetragonal,0,7.390548802,H4
mp-20338,CeAl3Ni2,CeAl3Ni2,121.33,181.58,72.6,0.25057,120.75,179.19,71.521,0.25267,121.04,72.061,180.39,0.25162,hexagonal,0,5.752872957,H4
mp-1061,PrPt2,PrPt2,146,166.61,63.6,0.30981,146,162.52,61.818,0.31448,146,62.709,164.57,0.31214,cubic,0,14.63505656,H1a
mp-5526,La(CoSi)2,La(CoSi)2,115.33,198.08,81.6,0.21375,106.48,174.05,70.891,0.22757,110.91,76.245,186.09,0.22035,tetragonal,0,6.438415086,H4
mp-13175,PtN,PtN,221,113.71,40.2,0.41425,221,111.26,39.286,0.41609,221,39.743,112.49,0.41517,cubic,0,15.31364684,H1a
mp-18750,Mn(FeO2)2,Mn(FeO2)2,157.67,164.91,62.2,0.32567,157.67,148.54,55.304,0.34298,157.67,58.752,156.78,0.33427,cubic,1.2203,4.774578316,H5
mp-754128,Ba3Hf2O7,Ba3Hf2O7,124.44,181.64,72.267,0.25673,123.76,175.03,69.219,0.2643,124.1,70.743,178.34,0.26049,tetragonal,3.5977,7.531870046,H4
mp-4875,GdTaO4,GdTaO4,146,174.33,67,0.30099,134.16,162.32,62.511,0.29834,140.08,64.756,168.33,0.29972,monoclinic,3.2929,8.577403298,H2
mp-429,ZnNi,ZnNi,146,188.6,73.4,0.28471,146,139.17,51.886,0.34113,146,62.643,164.41,0.31231,tetragonal,0,8.555705664,H4
mp-999473,ZnN,ZnN,164.33,152.31,56.6,0.34552,164.33,151.89,56.425,0.34595,164.33,56.512,152.1,0.34574,cubic,0,6.571050952,H1a
mp-754327,Ho2CuO4,Ho2CuO4,162.67,195.03,75,0.30018,153.1,115.92,42.189,0.37381,157.89,58.594,156.43,0.33487,tetragonal,0,8.717778916,H4
mp-1025102,CeAl3Pt2,CeAl3Pt2,134.89,171.86,66.733,0.28765,134.65,171.22,66.462,0.28807,134.77,66.598,171.54,0.28786,hexagonal,0,9.265288691,H4
mp-36699,Ce2Y2O7,Ce2Y2O7,144.44,167.9,64.267,0.30627,144.38,162.73,62.007,0.31216,144.41,63.137,165.32,0.30921,triclinic,1.7347,5.907031636,H5
mp-1024984,TbInPt4,TbInPt4,162.67,159.82,59.8,0.33625,162.67,146.01,54.061,0.3504,162.67,56.93,152.95,0.34329,cubic,0,15.5840551,H1a
mp-977547,MgZnRh2,MgZnRh2,147.67,173.23,66.4,0.30448,147.67,152.24,57.312,0.32817,147.67,61.856,162.83,0.31622,cubic,0,8.450234126,H1a
mp-977184,NpTcO3,NpTcO3,213,158.51,57.6,0.37597,213,74.563,25.86,0.44166,213,41.73,117.52,0.40805,cubic,0,10.12802813,H1a
mp-3048,U2SeN2,U2SeN2,127.89,179.6,70.933,0.26595,124.49,173.24,68.31,0.26806,126.19,69.622,176.42,0.26699,trigonal,0,11.05301731,H2
mp-971826,Tl3H,Tl3H,213,118.23,42,0.40749,213,116.64,41.4,0.40873,213,41.7,117.44,0.40811,cubic,0,9.767068036,H1a
mp-3415,Yb(SiRu)2,Yb(SiRu)2,132.78,179.62,70.467,0.27453,126.3,168.93,66.138,0.27708,129.54,68.302,174.28,0.27577,tetragonal,0,8.51963415,H4
mp-19312,BaTb2NiO5,BaTb2NiO5,129.89,182.6,72.133,0.2657,129.6,165.56,64.318,0.28708,129.74,68.226,174.15,0.27629,orthorhombic,0,7.747984791,H4
mp-510376,CeBRh3,CeBRh3,192,142.07,51.6,0.37667,192,122.39,43.907,0.39376,192,47.754,132.29,0.38516,cubic,0,9.983807634,H1a
mp-2345,Dy2O3,Dy2O3,142,167.38,64.2,0.30355,142,164.79,63.059,0.30659,142,63.63,166.08,0.30507,cubic,3.9365,8.144291205,H2
mp-12752,Zr4Al3,Zr4Al3,108.22,187.37,77.333,0.21144,108.19,185.73,76.505,0.21387,108.21,76.919,186.55,0.21266,hexagonal,0,5.30173904,H4
mp-20661,Ti2PbC,Ti2PbC,118.89,182.48,73.333,0.24419,117.22,179.19,71.949,0.24524,118.06,72.641,180.83,0.24471,hexagonal,0,8.250785479,H4
mp-862361,Sc2NiOs,Sc2NiOs,141,167.22,64.2,0.30234,141,165.95,63.641,0.30384,141,63.92,166.59,0.30309,cubic,0,8.585714592,H1a
mp-1018714,HfGaCu,HfGaCu,136.44,173.32,67.267,0.28829,136.44,165.62,63.815,0.29768,136.44,65.541,169.49,0.29297,hexagonal,0,10.60248965,H4
mp-690536,Sr4Fe4O11,Sr4Fe4O11,123.11,178.37,70.867,0.25852,122.7,177.4,70.449,0.25904,122.91,70.658,177.89,0.25878,orthorhombic,0,5.08634712,H4
mp-631320,TcIrOs,TcIrOs,244,94.729,33,0.43529,244,94.245,32.824,0.43563,244,32.912,94.487,0.43546,cubic,0,15.51857663,H1a
mp-775906,Y2O3,Y2O3,139.78,168.98,65.067,0.29851,138.5,166.37,64.001,0.29978,139.14,64.534,167.68,0.29915,orthorhombic,4.392,5.102954129,H2
mp-568725,Dy(FeB)2,Dy(FeB)2,112.78,186.71,76.267,0.22407,112.59,180.9,73.403,0.23223,112.69,74.835,183.81,0.22813,tetragonal,0,8.008231957,H4
mp-22662,TiGaPt,TiGaPt,165,164.35,61.6,0.33399,159.9,139.72,51.583,0.35436,162.45,56.591,152.11,0.34394,hexagonal,0,11.14747029,H4
mp-4962,CoSbS,CoSbS,113,188.64,77.2,0.22177,112.5,178.47,72.221,0.2356,112.75,74.711,183.58,0.22863,orthorhombic,0,6.836956358,H4
mp-1029458,Zn2CrN3,Zn2CrN3,152.44,160.68,60.667,0.32432,152.2,156.88,59.058,0.32821,152.32,59.862,158.79,0.32626,orthorhombic,0,5.325875258,H4
mp-4064,Ca(NiP)2,Ca(NiP)2,114.44,186.01,75.667,0.22912,114.35,178.96,72.211,0.23917,114.4,73.939,182.5,0.23412,tetragonal,0,5.080156032,H4
mp-22323,In2O3,In2O3,153,161.53,61,0.32404,148.78,157.7,59.584,0.32335,150.89,60.292,159.62,0.3237,trigonal,0.9589,6.941640665,H2
mp-8578,Sc3InC,Sc3InC,97.333,191.7,81.8,0.17175,97.333,191.59,81.741,0.17193,97.333,81.771,191.64,0.17184,cubic,0.0818,4.588766197,H5
mp-1247,Sb2Ir,Sb2Ir,119.22,187.5,75.733,0.23789,117.51,172.62,68.766,0.25516,118.36,72.25,180.1,0.2464,monoclinic,0.4499,10.56884427,H4
mp-11486,Y2(Al3Co)3,Y2(Al3Co)3,110.56,186.16,76.333,0.21936,109.02,183.87,75.423,0.21891,109.79,75.878,185.01,0.21914,orthorhombic,0,4.474172739,H4
mp-973652,LuRu3,LuRu3,185.67,142.68,52,0.37192,185.67,128.57,46.429,0.38459,185.67,49.214,135.66,0.37823,cubic,0,12.29707358,H1a
mp-19366,Lu(FeO2)2,Lu(FeO2)2,159.89,156.5,58.533,0.33686,156.71,152.38,56.946,0.33794,158.3,57.74,154.44,0.3374,trigonal,0,6.600523215,H2
mp-3107,Ga3PO7,Ga3PO7,151.44,161.49,61.067,0.32227,149.12,157.73,59.58,0.32371,150.28,60.323,159.61,0.32299,trigonal,3.1481,4.632149104,H2