Material_ID,Formula,pretty_formula,KV ,EV ,GV ,PV ,KR ,ER ,GR ,PR ,bulk,shear,young,poisson,csyst,gap,density,y_cla
mp-864945,MnBe2Rh,MnBe2Rh,175.67,241.9,95.2,0.27049,175.67,215.27,83.068,0.29576,175.67,89.134,228.72,0.283,cubic,0,6.852919459,H1a
mp-7754,Si2Ru,Si2Ru,169.78,244.59,97.067,0.25989,165.94,222.25,87.034,0.27678,167.86,92.05,233.47,0.26819,tetragonal,0,5.962762949,H4
mp-861961,TiZnRh2,TiZnRh2,193,220.07,84,0.30995,193,214.76,81.688,0.31454,193,82.844,217.42,0.31224,cubic,0,9.271396477,H1a
mp-19331,MnNiO3,MnNiO3,175.44,228.97,89.267,0.28249,174.6,228.38,89.07,0.282,175.02,89.168,228.67,0.28225,trigonal,0,5.430002899,H2
mp-864955,Mn2CrCo,Mn2CrCo,154,245.81,99.6,0.23397,154,236.78,95.186,0.24375,154,97.393,241.31,0.23884,cubic,0,7.716185888,H1a
mp-974395,Pt3Rh,Pt3Rh,211,205.47,76.8,0.3377,211,204.63,76.446,0.33837,211,76.623,205.05,0.33803,cubic,0,18.58515831,H1a
mp-866109,HoNbOs2,HoNbOs2,192.67,218.19,83.2,0.31125,192.67,216.14,82.304,0.31303,192.67,82.752,217.16,0.31214,cubic,0,14.98319651,H1a
mp-16336,Zr2Fe3Si,Zr2Fe3Si,165.78,238.59,94.667,0.26014,164.57,230.43,90.964,0.26663,165.17,92.815,234.52,0.26336,hexagonal,0,7.211276063,H4
mp-4720,Si2Ni6B,Si2Ni6B,213.22,232.38,88.133,0.31836,206.34,177.55,65.441,0.35658,209.78,76.787,205.31,0.33688,hexagonal,0,7.529756373,H4
mp-570991,TiSi2,TiSi2,138.44,262.15,110.67,0.18441,137.26,237.02,97.761,0.21222,137.85,104.21,249.72,0.19809,orthorhombic,0,4.066141027,H4
mp-570554,Tb(PRu)2,Tb(PRu)2,153.11,247.71,100.67,0.23036,147.59,237.66,96.48,0.23163,150.35,98.574,242.68,0.23098,tetragonal,0,8.860373534,H4
mp-975912,Mo3H,Mo3H,208.89,138.23,49.733,0.38971,208.88,268.1,104.23,0.28607,208.88,76.983,205.68,0.33589,tetragonal,0,8.64825162,H4
mp-607111,AlPt3,AlPt3,217.67,207.59,77.4,0.34105,217.47,191.88,70.913,0.35295,217.57,74.157,199.77,0.34697,tetragonal,0,16.80134527,H4
mp-977550,ZrScOs2,ZrScOs2,190.33,218.77,83.6,0.30843,190.33,217.05,82.848,0.30994,190.33,83.224,217.91,0.30918,cubic,0,12.4209098,H1a
mp-2439,ZrNi5,ZrNi5,183.33,223.11,86,0.29717,183.33,221.65,85.349,0.2985,183.33,85.675,222.38,0.29783,cubic,0,8.519311053,H1a
mp-636328,TiPd3,TiPd3,178,233.69,91.2,0.28119,178,217.67,83.967,0.29619,178,87.583,225.73,0.28864,cubic,0,10.02818286,H1a
mp-864669,NbGeRu2,NbGeRu2,225.33,5.9823,2,0.49558,225.33,350.54,141.26,0.24073,225.33,71.632,194.31,0.35628,cubic,0,10.11292545,H1a
mp-1996,NdIr3,NdIr3,188.33,237.35,92,0.28995,188.33,200.32,75.723,0.32273,188.33,83.861,219.07,0.30613,cubic,0,16.94629159,H1a
mp-6008,Ca3Al2(SiO4)3,Ca3Al2(SiO4)3,154.33,240.18,96.8,0.24062,154.33,239.73,96.581,0.24111,154.33,96.69,239.96,0.24086,cubic,4.9927,3.489873383,H2
mp-22722,NbSiPd,NbSiPd,194.89,223.85,85.533,0.30856,194.52,205.39,77.565,0.32401,194.7,81.549,214.68,0.31624,orthorhombic,0,8.188774868,H4
mp-566278,WO3,WO3,197.44,233.18,89.467,0.30317,190.63,196.74,74.074,0.32799,194.04,81.77,215.1,0.31524,orthorhombic,1.3113,6.65224644,H2
mp-3759,MgGeO3,MgGeO3,166.33,241.53,96,0.25798,162.31,226,89.123,0.26793,164.32,92.561,233.79,0.26287,trigonal,3.7798,4.764605969,H2
mp-457,CeBe13,CeBe13,111,261.71,118.2,0.10705,111,261.16,117.86,0.10787,111,118.03,261.43,0.10746,cubic,0,3.159049584,H1a
mp-1018012,TiFeCoGe,TiFeCoGe,220,219.29,82.2,0.33387,220,174.65,63.85,0.36769,220,73.025,197.25,0.35057,cubic,0,7.949759983,H1a
mp-771055,EuZrO3,EuZrO3,171.67,238.47,94,0.26847,171.67,219.31,85.197,0.28708,171.67,89.599,228.96,0.27771,cubic,0.3877,6.538823412,H5
mp-622497,V3O5,V3O5,185.22,224.62,86.533,0.29788,184.57,216.11,82.81,0.30485,184.9,84.672,220.38,0.30135,monoclinic,0,4.444064038,H4
mp-8535,ErSi2Rh3,ErSi2Rh3,165.33,235.8,93.4,0.2623,163.39,230.4,91.069,0.26497,164.36,92.234,233.1,0.26363,orthorhombic,0,9.211047759,H4
mp-5221,HfAlCo2,HfAlCo2,172.33,229.1,89.6,0.27844,172.33,227.01,88.644,0.28046,172.33,89.122,228.05,0.27945,cubic,0,9.779117912,H1a
mp-977362,ZnGaRh2,ZnGaRh2,194,218.84,83.4,0.31199,194,209.14,79.198,0.32033,194,81.299,214,0.31615,cubic,0,10.19268733,H1a
mp-20418,SiRh2,SiRh2,226.44,212.47,79.067,0.34362,213.46,180.38,66.355,0.35916,219.95,72.711,196.48,0.35112,orthorhombic,0,9.539641158,H4
mp-567981,CrGaCo2,CrGaCo2,198.33,248.43,96.2,0.29123,198.33,171.54,63.259,0.35585,198.33,79.729,210.92,0.32275,cubic,0,8.478266107,H1a
mp-865678,TiMn2V,TiMn2V,191.33,231.16,89,0.29864,191.33,199.48,75.206,0.32624,191.33,82.103,215.49,0.31229,cubic,0,6.93063331,H1a
mp-8221,ZrAsRu,ZrAsRu,186.89,219.01,83.933,0.30469,186.88,217.75,83.378,0.3058,186.88,83.656,218.38,0.30524,hexagonal,0,8.835455292,H4
mp-11536,NpRh3,NpRh3,210.33,203.01,75.8,0.33913,210.33,202.52,75.593,0.33953,210.33,75.696,202.77,0.33933,cubic,0,14.06564617,H1a
mp-567278,Sr(Si3N4)2,Sr(Si3N4)2,148.56,246.89,100.93,0.22302,146.94,237.55,96.519,0.23057,147.75,98.726,242.23,0.22676,orthorhombic,3.2765,3.403381799,H2
mp-541,Ta3Sb,Ta3Sb,185,229.66,88.8,0.2931,185,209.04,79.684,0.31168,185,84.242,219.42,0.30232,cubic,0,14.80071936,H1a
mp-20586,VCo2Si,VCo2Si,213,236.67,90,0.31481,213,163.28,59.493,0.37224,213,74.746,200.76,0.34291,cubic,0,7.224816669,H1a
mp-867775,Al2NiRu,Al2NiRu,178.67,233.38,91,0.2823,178.67,213.19,81.925,0.30113,178.67,86.463,223.36,0.29164,cubic,0,6.966921687,H1a
mp-1014265,Zr2N,Zr2N,174,248.8,98.6,0.26168,172.79,203.75,78.155,0.30348,173.4,88.377,226.63,0.28217,tetragonal,0,6.644608678,H4
mp-3710,HoBRh3,HoBRh3,183.33,227.14,87.8,0.29351,183.33,212.24,81.191,0.30705,183.33,84.496,219.73,0.30025,cubic,0,10.84904499,H1a
mp-1018639,TiSnO3,TiSnO3,178,223.1,86.4,0.2911,178,223.09,86.394,0.29112,178,86.397,223.1,0.29111,cubic,1.2935,5.778248869,H5
mp-714885,VO,VO,162.67,245.25,98.2,0.24872,162.67,219.62,86.125,0.27498,162.67,92.163,232.57,0.26172,trigonal,0.9575,5.246172809,H2
mp-7092,TiSi,TiSi,146.67,249.2,102.4,0.21681,145.53,235.07,95.497,0.23078,146.1,98.949,242.17,0.22373,orthorhombic,0,4.22430874,H4
mp-635,ScRh3,ScRh3,184.33,235.31,91.4,0.28724,184.33,202.02,76.675,0.31735,184.33,84.038,218.85,0.30212,cubic,0,9.598869613,H1a
mp-862723,ScTc2Mo,ScTc2Mo,210.33,207.31,77.6,0.33573,210.33,195.78,72.788,0.34486,210.33,75.194,201.56,0.34028,cubic,0,8.808557102,H1a
mp-15856,DyRh3C,DyRh3C,200,208.49,78.6,0.32626,200,208.47,78.593,0.32627,200,78.597,208.48,0.32627,cubic,0,10.96360509,H1a
mp-2858,ZrO2,ZrO2,188.44,227.69,87.667,0.29862,177.56,211.51,81.257,0.30147,183,84.462,219.6,0.3,monoclinic,3.5401,5.563611317,H2
mp-15649,As2Ir,As2Ir,153.11,247.31,100.47,0.2308,150.8,229.74,92.183,0.24609,151.95,96.325,238.57,0.23834,monoclinic,1.1531,10.45360279,H4
mp-22120,YRh3C,YRh3C,196.67,210.41,79.6,0.32168,196.67,210.3,79.552,0.32178,196.67,79.576,210.36,0.32173,cubic,0,9.253270908,H1a
mp-22289,Mn2CoGe,Mn2CoGe,183.33,239.09,93.2,0.28265,183.33,197.79,74.91,0.32019,183.33,84.055,218.74,0.30115,cubic,0,8.506951551,H1a
mp-864909,HfAlRu2,HfAlRu2,194.67,211.55,80.2,0.31888,194.67,210.8,79.878,0.31952,194.67,80.039,211.18,0.3192,cubic,0,10.97775607,H1a
mp-672289,Ge3N4,Ge3N4,165.67,231.61,91.4,0.267,165.65,227.51,89.493,0.2711,165.66,90.446,229.56,0.26904,trigonal,2.0807,5.118468545,H2
mp-1018028,TiS,TiS,142.22,252.66,104.93,0.20391,138.64,235.79,96.911,0.21653,140.43,100.92,244.25,0.21011,hexagonal,0,4.442034081,H4
mp-1009458,NbC,NbC,197.33,212.82,80.6,0.32025,197.33,205.59,77.5,0.32636,197.33,79.05,209.21,0.3233,cubic,0,6.067271513,H1a
mp-21235,Mn2VGa,Mn2VGa,186.33,235.67,91.4,0.28921,186.33,196.62,74.243,0.32414,186.33,82.821,216.4,0.30644,cubic,0,7.749638334,H1a
mp-20679,Co3SnC,Co3SnC,205.67,210.1,79,0.32974,205.67,196.97,73.477,0.34038,205.67,76.239,203.56,0.33504,cubic,0,8.968624197,H1a
mp-1042,HfSi,HfSi,152.89,244.95,99.333,0.23297,152.61,229.16,91.684,0.24973,152.75,95.509,237.11,0.24129,orthorhombic,0,9.983668576,H4
mp-30551,GaFeCo2,GaFeCo2,190.67,242.2,94,0.28829,190.67,183.33,68.421,0.33974,190.67,81.211,213.34,0.31351,cubic,0,8.691987029,H1a
mp-983358,HfAlFe2,HfAlFe2,165.67,229.46,90.4,0.26915,165.67,228.99,90.181,0.26963,165.67,90.29,229.23,0.26939,cubic,0,9.628102582,H1a
mp-865611,MgRh3,MgRh3,181.78,223.9,86.467,0.29471,181.61,214.28,82.204,0.30335,181.69,84.335,219.11,0.29902,orthorhombic,0,9.436342303,H4
mp-1918,FeRh,FeRh,196.67,222.89,85,0.31111,196.67,195.28,73.164,0.33451,196.67,79.082,209.21,0.32271,cubic,0,9.581025036,H1a
mp-863690,Ti2MnCo,Ti2MnCo,180.67,227.12,88,0.29048,180.67,212.05,81.284,0.30438,180.67,84.642,219.63,0.29739,cubic,0,6.64951189,H1a
mp-669692,NbPd3,NbPd3,196.11,212.82,80.667,0.31913,196.1,206.03,77.754,0.32489,196.11,79.21,209.43,0.32201,orthorhombic,0,10.82978166,H4
mp-973756,Lu2Mo2C3,Lu2Mo2C3,167,233.18,92,0.26728,164.86,224.25,88.059,0.2733,165.93,90.029,228.72,0.27027,monoclinic,0,9.645354858,H4
mp-3020,BaNbO3,BaNbO3,167.67,229.88,90.4,0.27149,167.67,224.72,88.012,0.27662,167.67,89.206,227.31,0.27405,cubic,0,6.443755575,H1a
mp-999389,NbFe3,NbFe3,207,210.72,79.2,0.33033,207,192.61,71.605,0.34492,207,75.402,201.71,0.33759,cubic,0,8.348072703,H1a
mp-29726,LaSi2Rh3,LaSi2Rh3,171.78,225.64,88.067,0.28107,170.75,224.33,87.559,0.28104,171.27,87.813,224.99,0.28106,hexagonal,0,8.228016275,H4
mp-864684,Hf2MoIr,Hf2MoIr,191.33,213.41,81.2,0.3141,191.33,210.68,80.018,0.31648,191.33,80.609,212.05,0.31529,cubic,0,15.13283528,H1a
mp-567612,ScOs2,ScOs2,237.56,181.05,65.933,0.37298,237.38,180.13,65.571,0.37353,237.47,65.752,180.59,0.37325,hexagonal,0,13.97757486,H4
mvc-11732,YCoO3,YCoO3,169.78,233.49,91.867,0.27079,169.44,218.08,84.822,0.2855,169.61,88.344,225.83,0.2781,cubic,0.8662,5.993226886,H5
mp-5786,U(SiOs)2,U(SiOs)2,200.11,236.31,90.667,0.30318,199.91,174.68,64.487,0.35437,200.01,77.577,206.09,0.32827,tetragonal,0,13.47410122,H4
mp-866218,Ti2MnRh,Ti2MnRh,189.67,221.86,85,0.30505,189.67,202.95,76.777,0.32166,189.67,80.889,212.46,0.3133,cubic,0,7.479172509,H1a
mp-869,TaAl3,TaAl3,132.67,250,105.4,0.18594,132.62,243.15,101.79,0.19442,132.64,103.59,246.59,0.19016,tetragonal,0,6.813775743,H4
mp-866125,LuTaRu2,LuTaRu2,172,231.2,90.6,0.27596,172,216.05,83.698,0.29065,172,87.149,223.67,0.28326,cubic,0,13.61623757,H1a
mp-1357,P3Rh,P3Rh,151,236.41,95.4,0.23906,151,236.4,95.394,0.23907,151,95.397,236.41,0.23907,cubic,0,4.965351865,H1a
mp-9938,Hf2Si,Hf2Si,141.22,243.76,100.53,0.21232,141.22,240.14,98.694,0.21659,141.22,99.614,241.95,0.21445,tetragonal,0,11.37026223,H4
mp-16363,CoAsS,CoAsS,130.33,252.03,107,0.17771,130.33,243.35,102.35,0.18881,130.33,104.68,247.71,0.18323,cubic,0.884,6.329347343,H5
mvc-11229,YFeO3,YFeO3,224,189.2,69.6,0.35922,224,189.07,69.545,0.35932,224,69.573,189.14,0.35927,cubic,0.8102,5.465937801,H5
mp-4364,NbGaCo2,NbGaCo2,194.33,223.47,85.4,0.30835,194.33,194.59,72.982,0.33312,194.33,79.191,209.16,0.32062,cubic,0,8.743219567,H1a
mp-11453,HfPd3,HfPd3,178.67,220.99,85.4,0.29385,178.66,217.44,83.812,0.29716,178.67,84.606,219.22,0.29551,hexagonal,0,12.76541269,H4
mp-2593,AlNi3,AlNi3,177.33,243.11,95.6,0.27151,177.33,195.8,74.392,0.31598,177.33,84.996,219.86,0.29336,cubic,0,7.466731653,H1a
mp-861931,LiPt3,LiPt3,179.33,226.44,87.8,0.28955,179.33,210.59,80.729,0.30429,179.33,84.264,218.56,0.29688,cubic,0,16.6923426,H1a
mp-758594,Li(Fe3P2)2,Li(Fe3P2)2,176.89,238.12,93.333,0.27564,173.62,203.68,78.071,0.30448,175.26,85.702,221.07,0.28976,hexagonal,0,6.15276858,H4
mp-984711,Cr3Cu,Cr3Cu,211.33,269.36,104.6,0.28757,211.33,118.56,42.147,0.4065,211.33,73.373,197.29,0.34441,cubic,0,7.800995307,H1a
mp-978969,TlAu3,TlAu3,305.44,6.7832,2.2667,0.4963,604.18,33.886,11.366,0.49065,454.81,6.8165,20.348,0.49254,tetragonal,0,16.30200919,H4
mp-755066,Al2O3,Al2O3,182.56,222.84,85.933,0.29656,180.85,210.9,80.766,0.30564,181.7,83.35,216.89,0.30106,monoclinic,4.2446,3.47369418,H2
mp-865252,TmSnRh2,TmSnRh2,149.67,13.66,4.6,0.48479,149.67,395.63,186.72,0.059435,149.67,95.658,236.57,0.23656,cubic,0,11.35597653,H1a
mp-754678,BaTaO3,BaTaO3,165.33,231.53,91.4,0.2666,165.33,222.81,87.349,0.27539,165.33,89.375,227.19,0.27098,cubic,0,8.628535381,H1a
mp-977997,ZnMo3,ZnMo3,239.67,233.78,87.4,0.33743,239.67,117.89,41.567,0.41802,239.67,64.483,177.53,0.37654,cubic,0,9.566966053,H1a
mp-5429,Tb(SiOs)2,Tb(SiOs)2,173.67,224.97,87.6,0.28409,173.34,218.86,84.86,0.28956,173.5,86.23,221.92,0.28682,tetragonal,0,11.67095724,H4
mp-10716,YbRh3C,YbRh3C,190.67,215.16,82,0.31193,190.67,206.45,78.229,0.31954,190.67,80.115,210.82,0.31572,cubic,0,11.59249354,H1a
mp-3524,LiPN2,LiPN2,143.78,264.21,110.67,0.19373,142.7,214.78,85.972,0.24915,143.24,98.319,240.04,0.22071,tetragonal,4.0907,2.874445085,H4
mp-22619,NiP2,NiP2,144.67,250.91,103.6,0.21094,144.67,227.29,91.787,0.23814,144.67,97.694,239.23,0.22439,cubic,0,4.942386157,H1a
mp-856,SnO2,SnO2,176.22,245.74,96.933,0.26758,167.59,199.22,76.514,0.30188,171.91,86.724,222.72,0.28407,tetragonal,1.4068,6.608865506,H1a
mp-1017511,Cr3Fe,Cr3Fe,245.44,118.31,41.667,0.41967,245.44,225.28,83.622,0.34702,245.44,62.645,173.2,0.38239,tetragonal,0,7.720826808,H4
mp-582360,TaPd3,TaPd3,201.11,209.72,79.067,0.3262,199.7,198.46,74.365,0.33437,200.41,76.716,204.1,0.33026,hexagonal,0,13.20453705,H4
mp-12533,La2Hf2O7,La2Hf2O7,165,227.17,89.4,0.27053,165,226.69,89.178,0.27102,165,89.289,226.93,0.27078,cubic,4.2328,7.857130974,H2
mp-3744,NaNbO2,NaNbO2,149.56,247.99,101.33,0.22364,141.83,228.68,92.864,0.23127,145.69,97.099,238.35,0.22734,hexagonal,1.4064,5.414801231,H1a
mp-5383,NdNiC2,NdNiC2,180,227.89,88.4,0.28899,165,216.05,84.279,0.28176,172.5,86.34,221.98,0.28552,orthorhombic,0,7.06954335,H4
mp-979265,Ta2CN3,Ta2CN3,268,225.21,82.8,0.35995,234.12,110.08,38.717,0.42163,251.06,60.759,168.67,0.38803,hexagonal,0,9.64917776,H4
mp-13322,LiGeRh2,LiGeRh2,174,221.06,85.8,0.28825,174,220.36,85.484,0.28892,174,85.642,220.71,0.28859,cubic,0,9.0869671,H1a
mp-865928,Ti2TcPt,Ti2TcPt,202,204.49,76.8,0.33128,202,200.32,75.042,0.33472,202,75.921,202.4,0.333,cubic,0,10.5339331,H1a
mp-4022,Zr2CoSi2,Zr2CoSi2,151,239.27,96.8,0.2359,150.17,230.21,92.492,0.2445,150.58,94.646,234.75,0.24017,monoclinic,0,6.125214831,H4
mp-978496,SiB4,SiB4,140.56,269.84,114.33,0.18004,136.41,211.92,85.378,0.24107,138.48,99.856,241.52,0.20933,trigonal,0,2.552914236,H2
mp-998971,TiFeCoSi,TiFeCoSi,177,232.18,90.6,0.28137,177,204.43,78.177,0.3075,177,84.389,218.45,0.2943,cubic,0,6.753704224,H1a
mp-22535,HfPbO3,HfPbO3,167.33,229.38,90.2,0.27153,167.33,219.63,85.709,0.28125,167.33,87.954,224.52,0.27637,cubic,2.7053,10.03604963,H2
mp-3292,Tb(CoSi)2,Tb(CoSi)2,153.44,238.44,96.067,0.24101,153.28,227.5,90.809,0.25263,153.36,93.438,232.99,0.24679,tetragonal,0,7.478852784,H4
mp-864930,LiTiIr2,LiTiIr2,192.67,208.5,79,0.31963,192.67,207.78,78.688,0.32026,192.67,78.844,208.14,0.31995,cubic,0,13.24344377,H1a
mp-999190,SmCoC2,SmCoC2,166.78,233.27,92.067,0.26688,157.91,221.67,87.547,0.26603,162.34,89.807,227.47,0.26647,orthorhombic,0,7.636167272,H4
mp-1017000,MgZrO3,MgZrO3,197.33,223.9,85.4,0.31089,197.33,185.42,69.011,0.3434,197.33,77.205,204.89,0.32695,cubic,0.643,3.845387571,H5
mp-5165,Th(SiRu)2,Th(SiRu)2,165.89,231.51,91.333,0.2674,162.35,220.85,86.725,0.27328,164.12,89.029,226.19,0.2703,tetragonal,0,9.343965547,H4
mp-21171,MnGaCo2,MnGaCo2,189.33,250.74,98,0.27928,189.33,167.07,61.745,0.35293,189.33,79.873,210.08,0.31507,cubic,0,8.581608965,H1a
mp-995434,Fe11MoC4,Fe11MoC4,193.78,228.08,87.467,0.30383,189.57,188.51,70.641,0.33427,191.68,79.054,208.5,0.31871,orthorhombic,0,7.60384274,H4
mp-865728,Ti2ReNi,Ti2ReNi,192.67,209.89,79.6,0.31843,192.67,205.78,77.83,0.32199,192.67,78.715,207.84,0.32021,cubic,0,9.791111143,H1a
mp-5820,Ce(CoP)2,Ce(CoP)2,157.56,245.43,98.933,0.24038,150.47,218.9,87.035,0.25753,154.01,92.984,232.22,0.2487,tetragonal,0,7.372242015,H4
mp-13914,LiCo2Ge,LiCo2Ge,152.33,239.64,96.8,0.23781,152.33,226.54,90.459,0.25215,152.33,93.629,233.13,0.24494,cubic,0,7.425339391,H1a
mp-27769,V3AsC,V3AsC,194.78,233.21,89.667,0.30045,187.36,183.75,68.741,0.33655,191.07,79.204,208.77,0.3179,orthorhombic,0,6.531323978,H4
mp-3239,Er(CoSi)2,Er(CoSi)2,148.33,239.32,97.2,0.2311,148.26,231.49,93.362,0.23976,148.3,95.281,235.42,0.23541,tetragonal,0,7.823926018,H4
mp-550172,SnO2,SnO2,176.33,245.05,96.6,0.26838,167.77,196.23,75.179,0.30506,172.05,85.889,220.91,0.286,orthorhombic,0.8227,6.62786711,H2
mp-753823,CeTh3O8,CeTh3O8,183.56,222.55,85.733,0.29793,183.52,204.34,77.731,0.31442,183.54,81.732,213.5,0.30612,orthorhombic,1.9589,9.199390466,H2
mp-13126,ZrN,ZrN,200.11,233.59,89.467,0.30545,199.19,170.98,63.003,0.35694,199.65,76.235,202.88,0.33064,hexagonal,0,5.639729073,H4
mp-542103,TbRh3C,TbRh3C,196.67,204.8,77.2,0.32644,196.67,204.8,77.199,0.32644,196.67,77.2,204.8,0.32644,cubic,0,10.82680999,H1a
mp-1842,NbAl3,NbAl3,127,249.88,106.6,0.17207,126.82,243.34,103.09,0.1802,126.91,104.85,246.62,0.17611,tetragonal,0,4.501843514,H4
mp-980094,TiPd,TiPd,153.89,112.29,40.733,0.37838,153.66,330.7,144.88,0.1413,153.77,92.807,231.79,0.24878,orthorhombic,0,8.112018295,H4
mp-7285,HfNi3,HfNi3,180.78,217.45,83.667,0.29952,180.64,212.32,81.404,0.30411,180.71,82.535,214.89,0.30181,trigonal,0,11.4396332,H2
mp-2749,TiBe2,TiBe2,124,248.93,106.8,0.16541,124,246.68,105.56,0.16845,124,106.18,247.81,0.16693,cubic,0,3.293295583,H1a
mp-999503,MoN,MoN,277.44,171.72,61.467,0.39684,246.76,146.16,52.151,0.40128,262.1,56.809,158.94,0.39893,hexagonal,0,7.615078494,H4
mp-29964,La3(TaN3)2,La3(TaN3)2,168.11,227.09,89.067,0.27486,166.82,219.04,85.486,0.28116,167.46,87.277,223.08,0.27799,tetragonal,0,8.489834556,H4
mp-22979,GaBiO3,GaBiO3,163.33,225.96,89,0.26943,163.33,225.03,88.566,0.27038,163.33,88.783,225.49,0.26991,cubic,1.6117,9.184240064,H5
mp-1432,Be2B,Be2B,150,243.44,99,0.22951,150,223.06,89.069,0.25216,150,94.034,233.34,0.24073,cubic,0,2.00712185,H1a
mp-12725,NbAgO3,NbAgO3,190,227.79,87.6,0.30018,190,188.18,70.481,0.33493,190,79.041,208.25,0.31733,cubic,1.409,6.339902421,H5
mp-4131,Sc(CoSi)2,Sc(CoSi)2,158.33,230.8,91.8,0.25706,158.3,225.7,89.394,0.26237,158.32,90.597,228.25,0.25971,tetragonal,0,5.309431812,H4
mp-861656,Ti2CrIr,Ti2CrIr,189.67,210.88,80.2,0.3147,189.67,205.81,78.007,0.31915,189.67,79.103,208.35,0.31692,cubic,0,9.760395798,H1a
mp-754165,ScGaO3,ScGaO3,179.33,217.97,84,0.29743,178.74,212.17,81.468,0.30217,179.04,82.734,215.07,0.29979,hexagonal,2.7057,4.754268275,H1b
mp-865805,TaZnCo2,TaZnCo2,199.67,221.93,84.4,0.31475,199.67,180.53,66.897,0.34931,199.67,75.649,201.5,0.3318,cubic,0,11.63296547,H1a
mp-865469,Ti2MnRu,Ti2MnRu,188.33,217.11,83,0.30787,188.33,200.79,75.925,0.32231,188.33,79.463,208.99,0.31505,cubic,0,7.458423089,H1a
mp-568711,VPd3,VPd3,180.11,223.62,86.467,0.29308,180.11,204.86,78.167,0.31043,180.11,82.317,214.3,0.30169,cubic,0,10.32103062,H1a
mp-21008,Ni3Ge,Ni3Ge,174.33,225.54,87.8,0.28438,174.33,209.8,80.729,0.29942,174.33,84.264,217.72,0.29186,cubic,0,9.008469955,H1a
mp-21012,Si3Rh5,Si3Rh5,205.89,211.38,79.533,0.32889,191.63,191.75,71.912,0.33323,198.76,75.723,201.57,0.33098,orthorhombic,0,9.143196405,H4
mp-3378,SrHfO3,SrHfO3,156.78,228.88,91.067,0.25668,156.74,227.89,90.599,0.25768,156.76,90.833,228.39,0.25718,orthorhombic,4.1772,7.508740829,H2
mp-2553,HfBe2,HfBe2,128.78,251.5,107.07,0.1745,128.56,236.7,99.19,0.19314,128.67,103.13,244.15,0.18374,hexagonal,0,8.279819554,H4
mp-865250,TmTc2W,TmTc2W,192,217.18,82.8,0.31148,192,194.62,73.109,0.33105,192,77.955,205.99,0.32119,cubic,0,13.52726992,H1a
mp-2893,Dy(SiRh)2,Dy(SiRh)2,163.89,227.65,89.733,0.26849,163.68,219.78,86.106,0.27621,163.78,87.919,223.73,0.27234,tetragonal,0,8.532369386,H4
mvc-11693,TiAlO3,TiAlO3,230.67,187.74,68.8,0.36435,230.66,170.75,62.018,0.37662,230.66,65.409,179.28,0.37046,cubic,0,3.544699835,H1a
mp-417,MnRh,MnRh,182.67,219.41,84.4,0.29981,182.67,203.67,77.49,0.31417,182.67,80.945,211.58,0.30695,cubic,0,9.28037591,H1a
mp-9951,MnNbGe,MnNbGe,181.22,226.18,87.533,0.29198,179.09,199.79,76.018,0.31407,180.16,81.776,213.09,0.30287,hexagonal,0,8.029379913,H4
mp-865160,MgGeIr2,MgGeIr2,184.67,210.17,80.2,0.31031,184.67,210.15,80.188,0.31034,184.67,80.194,210.16,0.31032,cubic,0,13.73574744,H1a
mp-861979,Ir2S3,Ir2S3,169.33,231.96,91.2,0.2717,165.48,210.2,81.582,0.28829,167.4,86.391,221.13,0.27984,trigonal,1.145,9.571727886,H2
mp-867829,LiVRh2,LiVRh2,179,213.86,82.2,0.30087,179,213.45,82.017,0.30126,179,82.108,213.66,0.30106,cubic,0,8.408842891,H1a