Material_ID,Formula,pretty_formula,KV ,EV ,GV ,PV ,KR ,ER ,GR ,PR ,bulk,shear,young,poisson,csyst,gap,density,y_cla
mp-5795,CaMg2N2,CaMg2N2,102,186.47,78,0.19531,100.55,167.69,68.612,0.22204,101.28,73.306,177.17,0.20843,trigonal,1.9919,2.885546666,H2
mp-3637,YOF,YOF,132,167.95,65.2,0.28794,130.92,149.71,57.166,0.30941,131.46,61.183,158.9,0.29854,trigonal,4.9304,5.055686935,H2
mp-37381,SmOF,SmOF,131,164.22,63.6,0.29106,131,154.1,59.09,0.30394,131,61.345,159.19,0.29747,cubic,5.5421,7.129060375,H2
mp-21167,Ni2P,Ni2P,193.89,117.34,41.933,0.39913,192.74,115.57,41.273,0.40006,193.32,41.603,116.46,0.3996,hexagonal,0,7.387820358,H4
mp-5063,YAl3Ni2,YAl3Ni2,113.44,171,68.467,0.24878,112.9,169.11,67.623,0.25035,113.17,68.045,170.05,0.24956,hexagonal,0,4.984204125,H4
mp-569697,Ce(NiP)2,Ce(NiP)2,120.22,187.36,75.533,0.24026,109.19,150.65,59.31,0.27005,114.71,67.422,169.13,0.25426,tetragonal,0,7.204627031,H4
mp-961658,VFeSe,VFeSe,159.33,140.21,51.8,0.35334,159.33,139.98,51.708,0.35358,159.33,51.754,140.09,0.35346,cubic,0,7.123873725,H1a
mp-976265,Hf2OsPd,Hf2OsPd,178,145.64,53.4,0.36364,178,108.07,38.631,0.39881,178,46.016,127.09,0.381,cubic,0,15.22375917,H1a
mp-11697,TaSb2,TaSb2,103,181.83,75.4,0.20578,101.03,170.46,69.932,0.21879,102.02,72.666,176.17,0.21219,monoclinic,0,10.19517193,H4
mp-4813,NbAlNi2,NbAlNi2,180.33,152.24,56,0.3593,180.33,97.158,34.448,0.4102,180.33,45.224,125.21,0.38428,cubic,0,7.312635105,H1a
mp-20711,Fe3Ge,Fe3Ge,176.67,207.62,79.6,0.30413,176.67,37.848,12.923,0.46429,176.67,46.262,127.64,0.37958,cubic,0,8.399633107,H1a
mp-7589,Mg2NF,Mg2NF,109.44,184.48,75.667,0.21906,98.576,165.1,67.614,0.22087,104.01,71.64,174.79,0.21991,tetragonal,2.3105,2.989886765,H4
mp-4014,Pr(CuSi)2,Pr(CuSi)2,99.778,179.66,74.867,0.19989,99.775,174.54,72.215,0.20845,99.776,73.541,177.11,0.20416,tetragonal,0,6.440414848,H4
mp-1002572,LiMnO2,LiMnO2,117.56,185.81,75.133,0.23656,102.38,156.88,63.023,0.24461,109.97,69.078,171.35,0.2403,orthorhombic,0.8595,4.093248673,H2
mp-17177,Nb2ZnO6,Nb2ZnO6,142.56,154,58.333,0.31996,139.26,149.81,56.716,0.3207,140.91,57.525,151.9,0.32033,orthorhombic,3.2853,5.373026325,H2
mp-4088,La(FeSi)2,La(FeSi)2,111.44,179.48,72.867,0.23158,100.59,167.33,68.425,0.22276,106.02,70.646,173.42,0.22738,tetragonal,0,6.226265259,H4
mp-5597,Ca(FeP)2,Ca(FeP)2,106.11,204.36,86.667,0.17901,71.62,159.87,70.868,0.12796,88.866,78.767,182.41,0.1579,tetragonal,0,4.868177468,H4
mp-672371,Ni3Sb,Ni3Sb,165.22,138.56,50.933,0.36023,165.09,131.96,48.274,0.36678,165.15,49.603,135.27,0.36349,orthorhombic,0,9.623674146,H4
mp-567856,MnAsRh,MnAsRh,141.22,154.28,58.533,0.31792,138.3,150.54,57.083,0.31859,139.76,57.808,152.41,0.31825,hexagonal,0,8.637513833,H4
mp-21141,Fe2CuGe2,Fe2CuGe2,130.56,171.49,66.933,0.28107,126.8,147.31,56.381,0.30638,128.68,61.657,159.5,0.29342,orthorhombic,0,7.982389329,H4
mp-1025304,Zr(TiGa2)2,Zr(TiGa2)2,110.67,177.5,72,0.23267,108.6,164.69,66.021,0.24725,109.63,69.01,171.13,0.23985,tetragonal,0,6.54082299,H4
mp-829,AlPd,AlPd,156.67,156.31,58.6,0.33371,156.67,124.96,45.702,0.36707,156.67,52.151,140.83,0.35018,cubic,0,7.599548831,H1a
mp-5971,YBPt2,YBPt2,159.44,139.89,51.667,0.35377,158.82,138.31,51.041,0.35486,159.13,51.354,139.1,0.35431,hexagonal,0,12.27173965,H4
mp-754701,CaTiO3,CaTiO3,137.44,166.35,64.067,0.29828,132.62,143.9,54.541,0.31916,135.03,59.304,155.19,0.30845,trigonal,3.5829,3.61317041,H2
mp-861958,Ti2MnBe,Ti2MnBe,153,144.95,54,0.34211,153,141.44,52.545,0.34592,153,53.272,143.2,0.34401,cubic,0,5.074746067,H1a
mp-756297,ZnIn2O4,ZnIn2O4,136,156.92,60,0.30769,136,151.91,57.811,0.31384,136,58.905,154.42,0.31076,cubic,1.187,6.423869049,H5
mp-571352,TmB6,TmB6,170,224.28,87.6,0.28012,170,24.222,8.204,0.47625,170,47.902,131.37,0.37121,cubic,0,5.713044949,H1a
mp-567618,Si5Pt12,Si5Pt12,204.89,119.87,42.733,0.40249,204.73,93.278,32.751,0.42406,204.81,37.742,106.67,0.41319,tetragonal,0,15.92806337,H4
mp-846,Hf2Al3,Hf2Al3,114,173.08,69.4,0.24696,113.99,163.21,64.697,0.26137,114,67.049,168.17,0.25412,orthorhombic,0,7.972095239,H4
mp-12382,ErSi2Ni,ErSi2Ni,120,169.03,66.8,0.26523,118.94,160.23,62.813,0.27547,119.47,64.807,164.65,0.27031,orthorhombic,0,7.283246052,H4
mp-6982,ErB2Rh2C,ErB2Rh2C,199.89,146.43,53.133,0.37791,199.59,71.884,24.96,0.43997,199.74,39.047,109.97,0.40824,tetragonal,0,9.100776875,H4
mp-4860,Gd2CuO4,Gd2CuO4,145.33,174.23,67,0.3002,139.55,124.45,46.045,0.35137,142.44,56.523,149.76,0.32477,tetragonal,0,8.022501649,H4
mp-771199,V3FeO8,V3FeO8,147.78,157.3,59.467,0.32259,146.83,135.36,50.269,0.34636,147.31,54.868,146.42,0.33433,monoclinic,0.5445,3.854635217,H4
mp-571552,Lu(CoGe)2,Lu(CoGe)2,118.22,168.5,66.733,0.26246,117.62,162.06,63.787,0.27035,117.92,65.26,165.29,0.26638,tetragonal,0,9.399076884,H4
mp-865428,UP3,UP3,95.889,185.44,78.733,0.17767,93.849,171.29,71.619,0.19581,94.869,75.176,178.4,0.18658,hexagonal,0,8.289429884,H4
mp-2677,ScPd3,ScPd3,155.33,159.94,60.2,0.32839,155.33,121.17,44.221,0.36999,155.33,52.211,140.85,0.34887,cubic,0,9.333919485,H1a
mp-1009593,CrCoTe,CrCoTe,137.33,154.83,59,0.3121,137.33,150.81,57.255,0.31698,137.33,58.127,152.82,0.31454,cubic,0,7.785227764,H1a
mp-672265,Cu3Pd,Cu3Pd,148.22,157.51,59.533,0.32289,148.22,133.23,49.339,0.35018,148.22,54.436,145.5,0.33639,tetragonal,0,9.619113892,H4
mp-18819,Ni2P2O7,Ni2P2O7,134.33,167.92,65,0.29167,128.6,144.92,55.222,0.31218,131.47,60.111,156.48,0.30162,monoclinic,3.737,4.061524714,H2
mp-866073,MgSnRh2,MgSnRh2,149,164.27,62.4,0.31625,149,124.85,45.889,0.36035,149,54.145,144.88,0.33794,cubic,0,9.031500315,H1a
mp-20146,Zr2Ni2Sn,Zr2Ni2Sn,132.67,157.32,60.4,0.30236,132.6,154.03,58.953,0.30639,132.63,59.677,155.68,0.30437,tetragonal,0,7.956537823,H4
mp-1025551,GaPt,GaPt,155.67,140.37,52,0.34971,155.67,140.3,51.971,0.34979,155.67,51.985,140.33,0.34975,cubic,0,14.30206113,H1a
mp-758104,Mn11Pd21,Mn11Pd21,142.56,165.04,63.133,0.30705,141.74,133.3,49.617,0.34327,142.15,56.375,149.38,0.32486,tetragonal,0,9.669416841,H4
mp-10911,Sc2Al3Ru,Sc2Al3Ru,112.33,170.58,68.4,0.24692,111.68,166.31,66.426,0.25182,112.01,67.413,168.45,0.24936,hexagonal,0,4.337630479,H4
mp-1482,Zr2Al3,Zr2Al3,108,173.1,70.2,0.23288,108,168.49,67.941,0.23997,108,69.07,170.8,0.23641,orthorhombic,0,4.6507655,H4
mp-1682,ZrAs,ZrAs,118.44,176.41,70.467,0.25176,117.56,152.81,59.537,0.28335,118,65.002,164.75,0.2673,hexagonal,0,6.650200619,H4
mp-555678,Na4Ti5O12,Na4Ti5O12,131.22,168.1,65.333,0.28649,130.63,144.73,55.014,0.31535,130.93,60.174,156.54,0.30073,trigonal,2.4848,3.601728626,H2
mp-982667,LiAl2Os,LiAl2Os,129.67,188.21,74.8,0.25809,129.67,124.35,46.392,0.34017,129.67,60.596,157.29,0.29783,cubic,0,7.540566033,H1a
mp-2317,LaNi5,LaNi5,135.56,156.25,59.733,0.30789,134.89,151.1,57.526,0.31331,135.22,58.63,153.68,0.31059,hexagonal,0,8.386307061,H4
mp-7914,NaScO2,NaScO2,107.33,182.49,75,0.21662,100.86,163.04,66.245,0.23057,104.09,70.623,172.79,0.22334,trigonal,3.9929,3.448480176,H2
mp-2574,ZrO2,ZrO2,175.44,194.33,73.867,0.31539,161.91,62.404,21.732,0.43576,168.68,47.799,131.02,0.37054,tetragonal,3.889,5.799508197,H4
mp-629015,BN,BN,196.67,344.14,142.4,0.20836,3.9641,5.4315,2.1356,0.27164,100.32,72.268,174.82,0.20955,hexagonal,4.0021,2.071456573,H1b
mp-9463,ZrGeSb,ZrGeSb,98,178.51,74.6,0.19642,97.83,173.73,72.144,0.20403,97.915,73.372,176.12,0.20021,tetragonal,0,7.361502684,H4
mp-2824,AlPd2,AlPd2,158.33,142.07,52.6,0.35045,157.25,134.75,49.642,0.35719,157.79,51.121,138.42,0.3538,orthorhombic,0,8.982676013,H4
mp-1025393,TmSi2Ni,TmSi2Ni,120.67,167.04,65.8,0.26928,120.47,158.67,61.957,0.28048,120.57,63.878,162.87,0.27486,orthorhombic,0,7.41344624,H4
mp-30383,Hf2Au,Hf2Au,134,160.7,61.8,0.30013,133.99,147.7,56.103,0.31629,134,58.951,154.24,0.30816,tetragonal,0,14.8688384,H4
mp-10523,CeSiO4,CeSiO4,150.67,169.57,64.6,0.31243,137.78,125,46.34,0.34879,144.22,55.47,147.5,0.32955,tetragonal,1.4496,4.936797896,H1a
mp-5748,HfAlNi2,HfAlNi2,164.67,135.22,49.6,0.36313,164.67,131.93,48.276,0.36646,164.67,48.938,133.58,0.3648,cubic,0,9.530654493,H1a
mp-5137,Zr2SbP,Zr2SbP,113.89,177.86,71.733,0.23972,112.87,156.17,61.515,0.2694,113.38,66.624,167.14,0.25432,hexagonal,0,6.490311529,H4
mp-11397,Ga3Ni2,Ga3Ni2,123.56,163.15,63.733,0.27993,122.33,159.38,62.119,0.28285,122.94,62.926,161.26,0.28138,trigonal,0,7.682461869,H2
mp-561894,Ba2CoMoO6,Ba2CoMoO6,122.78,166.76,65.467,0.27363,119.93,157.7,61.562,0.28085,121.36,63.515,162.24,0.27718,tetragonal,1.2991,6.296939521,H1a
mp-977463,MgMnRh2,MgMnRh2,133.33,173.04,67.4,0.2837,133.33,135.52,50.926,0.3306,133.33,59.163,154.62,0.30673,cubic,0,8.140581696,H1a
mp-761563,Mn2FeO3,Mn2FeO3,148.56,151.45,56.933,0.33008,146.98,138.62,51.615,0.34281,147.77,54.274,145.06,0.33638,monoclinic,0.1081,5.24056695,H4
mp-1017446,HfCdO3,HfCdO3,125.33,180.44,71.6,0.26005,125.33,138.07,52.443,0.31639,125.33,62.022,159.72,0.28761,cubic,0,8.1765317,H1a
mp-1380,Zn3Ru,Zn3Ru,137.78,168.65,65.067,0.29599,137.76,134.13,50.135,0.33772,137.77,57.601,151.66,0.31652,tetragonal,0,8.797160263,H4
mp-755450,La2Ce2O7,La2Ce2O7,129.67,156.85,60.4,0.2984,129.67,156.84,60.396,0.29841,129.67,60.398,156.84,0.2984,cubic,2.4075,6.289286965,H2
mp-976838,Ni3Au,Ni3Au,173.56,131.68,47.933,0.37355,173.46,122.65,44.37,0.38215,173.51,46.152,127.18,0.37784,hexagonal,0,12.25412626,H4
mp-2500,AlCu,AlCu,113.22,169.42,67.733,0.25061,111.85,165.45,65.996,0.25347,112.54,66.865,167.43,0.25203,monoclinic,0,5.356855143,H4
mp-867761,Sc2CoRu,Sc2CoRu,132,157.67,60.6,0.30092,132,152.88,58.486,0.30697,132,59.543,155.28,0.30394,cubic,0,6.491812689,H1a
mp-4989,CrNiAs,CrNiAs,128.89,158.36,61.133,0.29522,128.84,156.21,60.177,0.29793,128.86,60.655,157.29,0.29657,hexagonal,0,7.617337431,H4
mp-7066,ScNiGe,ScNiGe,124.67,163.51,63.8,0.28141,122.44,157.79,61.388,0.28522,123.56,62.594,160.65,0.28329,orthorhombic,0,6.237469521,H4
mp-8219,Zr(CuP)2,Zr(CuP)2,128.67,164.69,64,0.28667,128.59,150.02,57.454,0.30556,128.63,60.727,157.41,0.29604,trigonal,0,5.96863915,H2
mp-3998,LaTaO4,LaTaO4,133.89,176.07,68.733,0.28082,106.59,149.1,58.845,0.26687,120.24,63.789,162.61,0.2746,orthorhombic,3.4177,7.553474718,H2
mp-20102,Gd(PdO2)2,Gd(PdO2)2,153.89,153,57.333,0.3343,149.31,130.77,48.29,0.35402,151.6,52.812,141.95,0.34394,tetragonal,0,8.237960421,H4
mp-1025353,TlAsPt5,TlAsPt5,177.78,143.8,52.667,0.36519,177.6,103.23,36.786,0.40312,177.69,44.726,123.79,0.38389,tetragonal,0,17.29379845,H4
mp-21090,MnNiGe,MnNiGe,131,162.44,62.8,0.29333,129.86,149.03,56.938,0.30872,130.43,59.869,155.77,0.30095,hexagonal,0,8.068769881,H4
mp-2675,MgNi2,MgNi2,126.89,160.24,62.133,0.28952,126.89,155.76,60.121,0.29541,126.89,61.127,158.01,0.29246,hexagonal,0,6.032501485,H4
mp-20906,HoCoC,HoCoC,140.44,169.54,65.267,0.29881,133.48,133.06,49.879,0.33386,136.96,57.573,151.49,0.31565,tetragonal,0,8.749995605,H4
mp-673247,Y2O3,Y2O3,136,152.8,58.2,0.31274,136,151.38,57.581,0.31449,136,57.89,152.09,0.31361,cubic,0,5.05808991,H1a
mp-7186,NdAl3Ni2,NdAl3Ni2,126.33,164.7,64.2,0.28272,115.56,158.69,62.421,0.27114,120.95,63.31,161.71,0.27716,hexagonal,0,5.719691867,H4
mp-12951,ZrGaAu,ZrGaAu,127.22,161.63,62.733,0.28825,121.74,157.32,61.232,0.28462,124.48,61.983,159.48,0.28647,hexagonal,0,10.46106851,H4
mp-31455,VSbRu,VSbRu,164.33,133.21,48.8,0.36489,164.33,132.63,48.566,0.36549,164.33,48.683,132.92,0.36519,cubic,0.2741,8.23361857,H5
mp-756683,HfBiO4,HfBiO4,131.89,164.23,63.533,0.29247,127.19,148.12,56.713,0.3059,129.54,60.123,156.2,0.29903,triclinic,1.0419,9.112183965,H5
mp-11178,SrCeN2,SrCeN2,117.11,167.25,66.267,0.26197,116.44,161.12,63.464,0.26938,116.77,64.865,164.19,0.26565,trigonal,1.3186,6.111689347,H2
mp-570713,TiAlPt,TiAlPt,164,152.76,56.8,0.34475,159.25,115.99,42.067,0.37861,161.63,49.433,134.58,0.36122,hexagonal,0,9.656845226,H4
mp-842,CaPt2,CaPt2,132,157.67,60.6,0.30092,132,151.02,57.671,0.30932,132,59.136,154.36,0.30511,cubic,0,12.40199878,H1a
mp-571342,TiGa2,TiGa2,106.56,170.52,69.133,0.23328,106.36,169.61,68.712,0.23422,106.46,68.923,170.07,0.23375,tetragonal,0,6.57508826,H4
mp-568083,LaNi2B2C,LaNi2B2C,83.778,195.65,88.067,0.11078,78.158,170.12,74.793,0.13724,80.968,81.43,182.96,0.1234,tetragonal,0,6.869209011,H4
mp-15661,Sc4C3,Sc4C3,111.67,167.5,67,0.25,111.67,166.37,66.46,0.25168,111.67,66.73,166.94,0.25084,cubic,0.4656,3.799358905,H5
mp-972228,Zr3As2,Zr3As2,125.89,164.47,64.133,0.28225,125.71,151.84,58.459,0.29869,125.8,61.296,158.2,0.29041,orthorhombic,0,6.85368362,H4
mp-1008874,MnCoTe,MnCoTe,111.67,167.5,67,0.25,111.67,166.29,66.419,0.25181,111.67,66.709,166.89,0.2509,cubic,0,7.954128745,H1a
mp-20466,Sn7Ir5,Sn7Ir5,135.44,156.08,59.667,0.30794,135,148.06,56.202,0.31721,135.22,57.935,152.08,0.31255,tetragonal,0,12.0735154,H4
mp-30684,Zr3Ga2,Zr3Ga2,112,171.32,68.8,0.24506,111.48,162.11,64.452,0.25763,111.74,66.626,166.74,0.2513,tetragonal,0,6.802046203,H4
mp-11387,HfGa3,HfGa3,102.67,179.38,74.2,0.20879,102.2,164.66,66.857,0.23146,102.43,70.529,172.09,0.21999,tetragonal,0,9.296638516,H4
mp-4826,CaCuO2,CaCuO2,129.44,182.78,72.267,0.26465,111.7,139.57,54.025,0.29175,120.57,63.146,161.28,0.27706,tetragonal,0,4.672733704,H4
mp-1016877,HgRhO3,HgRhO3,182.11,127.45,46.067,0.38336,182.11,112.01,40.076,0.39749,182.11,43.071,119.77,0.39039,cubic,0,9.323166634,H1a
mp-2713,ErIr,ErIr,145.33,146.04,54.8,0.33252,145.33,144.2,54.023,0.33463,145.33,54.411,145.12,0.33357,cubic,0,15.21373467,H1a
mp-22469,InNi3,InNi3,149.56,145.39,54.333,0.33797,148.06,139.97,52.131,0.34244,148.81,53.232,142.68,0.34019,hexagonal,0,9.246113699,H4
mp-16719,Al12Tc,Al12Tc,95,175.86,73.8,0.19147,95,175.86,73.799,0.19147,95,73.8,175.86,0.19147,cubic,0,3.277389693,H1a
mp-31138,MnPd3,MnPd3,150.33,160.27,60.6,0.32232,150.28,122.24,44.794,0.36444,150.31,52.697,141.55,0.34305,tetragonal,0,10.19207711,H4
mp-862684,LiHf2Os,LiHf2Os,147,144.33,54,0.33636,147,143.23,53.538,0.33761,147,53.769,143.78,0.33699,cubic,0,13.17531771,H1a
mp-752415,NbO2F,NbO2F,140.11,186.3,72.867,0.27839,132.7,113.33,41.735,0.35766,136.4,57.301,150.79,0.31576,orthorhombic,1.7144,3.744802899,H2
mp-1013587,Sr3Bi2,Sr3Bi2,182,126.26,45.6,0.38438,182,112.6,40.305,0.39688,182,42.953,119.46,0.3906,cubic,0,4.641956503,H1a
mp-20340,EuN,EuN,110.67,167.25,67,0.24812,110.67,166.48,66.631,0.24928,110.67,66.815,166.86,0.2487,cubic,0,8.414486887,H1a
mp-30686,Zr2Ga3,Zr2Ga3,111,167.75,67.2,0.24813,110.75,165.67,66.233,0.25068,110.88,66.716,166.71,0.2494,orthorhombic,0,7.100975286,H4
mp-622209,Al3Ni,Al3Ni,113.44,165.98,66.067,0.25615,113.24,164.38,65.333,0.25806,113.34,65.7,165.18,0.2571,orthorhombic,0,4.034331992,H4
mp-978508,Si3Os,Si3Os,165.78,138.44,50.867,0.36082,165.67,122.94,44.662,0.37632,165.72,47.764,130.73,0.36852,tetragonal,0,8.370429042,H4
mp-8830,NaRhO2,NaRhO2,120.33,172.51,68.4,0.26106,111.58,154.64,60.929,0.26901,115.96,64.664,163.58,0.26488,trigonal,1.3153,5.814512761,H2
mp-10052,TiAs,TiAs,118.22,179,71.733,0.24765,113.95,147.65,57.493,0.28405,116.09,64.613,163.5,0.26526,hexagonal,0,5.724083761,H4
mp-998986,Ti3Si,Ti3Si,144,158.05,60,0.31707,144,132.7,49.277,0.34642,144,54.639,145.51,0.33158,cubic,0,4.585219363,H1a
mp-7787,HfSO,HfSO,137,150.17,57,0.31731,137,150.11,56.973,0.31738,137,56.987,150.14,0.31735,cubic,2.8696,8.13153426,H2
mp-978976,Ti6Al16Pt7,Ti6Al16Pt7,137,162.52,62.4,0.30228,137,137.17,51.445,0.33313,137,56.922,149.99,0.31753,cubic,0,7.540646829,H1a
mp-30671,Ti2Ga,Ti2Ga,121.33,162.86,63.8,0.2763,120.78,157.6,61.441,0.28253,121.06,62.621,160.23,0.2794,hexagonal,0,5.649651788,H4
mp-19728,YSiRh,YSiRh,124.33,165.63,64.8,0.27798,123.34,151.16,58.331,0.29574,123.84,61.566,158.44,0.28676,orthorhombic,0,6.663213,H4
mp-11233,ZrAl,ZrAl,108.78,177.09,72.067,0.22866,107.93,158.48,63.126,0.25528,108.35,67.596,167.88,0.24178,orthorhombic,0,4.961626929,H4
mp-4076,VCoSb,VCoSb,140.67,150.19,56.8,0.32206,140.67,144.72,54.465,0.32853,140.67,55.633,147.46,0.32529,cubic,0,7.775566358,H1a
mp-4283,LaSi2Pt,LaSi2Pt,129.11,157.35,60.667,0.29688,128.49,153.07,58.808,0.30145,128.8,59.737,155.22,0.29915,orthorhombic,0,8.153276695,H4
mp-19880,FeTe2,FeTe2,94.333,179.36,75.8,0.18311,94.24,171.85,71.839,0.19608,94.287,73.819,175.62,0.18956,orthorhombic,0.1232,8.053991236,H2
mp-640024,HfInNi2,HfInNi2,143.67,154.76,58.6,0.32047,143.67,135.84,50.595,0.34241,143.67,54.598,145.38,0.33135,cubic,0,11.46890149,H1a
mp-19417,TiFeO3,TiFeO3,169.44,148.08,54.667,0.35435,163.57,110.87,39.967,0.38703,166.51,47.317,129.67,0.37021,trigonal,2.0201,4.628389819,H2
mp-998981,TiAl3,TiAl3,105.67,169.59,68.8,0.2325,105.67,168.79,68.403,0.23377,105.67,68.602,169.19,0.23314,cubic,0,3.40308295,H1a
mp-631329,KMoRu2,KMoRu2,133,152.37,58.2,0.30906,133,152.09,58.078,0.30941,133,58.139,152.23,0.30923,cubic,0,8.441561304,H1a
mp-20828,Pt3Pb,Pt3Pb,172,128.72,46.8,0.37527,172,122.74,44.438,0.38106,172,45.619,125.74,0.37816,cubic,0,18.65125316,H1a
mp-5999,Sm2Ti2S2O5,Sm2Ti2S2O5,135.56,161.24,61.933,0.30175,131.75,142.18,53.852,0.32013,133.65,57.893,151.76,0.31075,tetragonal,0.7778,5.233540452,H1a
mp-20350,DyCoC,DyCoC,140.78,169.59,65.267,0.29922,132.23,129.62,48.488,0.33663,136.51,56.877,149.82,0.31707,tetragonal,0,8.539034817,H4
mp-12867,SrSnO3,SrSnO3,113.11,166.74,66.467,0.25431,111.25,163.64,65.204,0.25485,112.18,65.835,165.19,0.25458,tetragonal,1.5634,6.137039864,H1a
mp-755352,Li2HfO3,Li2HfO3,122,188.8,76,0.24208,90.101,148.69,60.691,0.22496,106.05,68.346,168.78,0.23475,monoclinic,4.4196,6.523326584,H2
mp-961651,ZrFeSe,ZrFeSe,112,171.73,69,0.24444,112,158.67,62.769,0.26389,112,65.885,165.25,0.25409,cubic,0.111,7.495195377,H5
mp-867214,Er2IrRu,Er2IrRu,130.67,154.3,59.2,0.30319,130.67,152.81,58.544,0.30509,130.67,58.872,153.55,0.30414,cubic,0,13.49016991,H1a
mp-622570,Ti2Cu3,Ti2Cu3,133.33,177.85,69.6,0.27768,132.94,124.7,46.404,0.34366,133.14,58.002,151.94,0.30979,tetragonal,0,6.86986582,H4
mp-972217,Ti2CuTc,Ti2CuTc,163.33,134.63,49.4,0.36263,163.33,128.51,46.94,0.36887,163.33,48.17,131.58,0.36574,cubic,0,7.244299156,H1a
mp-1594,Ni2Ge,Ni2Ge,178.33,132.65,48.2,0.37603,176.15,110.9,39.747,0.39507,177.24,43.973,121.84,0.38542,hexagonal,0,8.90301368,H4
mp-11578,VZn3,VZn3,112.33,173.47,69.8,0.24263,112.33,156.27,61.614,0.26814,112.33,65.707,164.96,0.25525,cubic,0,7.29493589,H1a
mp-4275,Sm(SiPd)2,Sm(SiPd)2,132.33,157.27,60.4,0.30192,130.2,148.7,56.772,0.30965,131.27,58.586,153,0.30574,tetragonal,0,7.87491296,H4
mp-30572,Hf2Ga,Hf2Ga,119.11,164.7,64.867,0.26954,118.71,156.91,61.305,0.27971,118.91,63.086,160.82,0.2746,tetragonal,0,11.88891984,H4
mp-505572,Al13(CrSi)4,Al13(CrSi)4,112.33,167.25,66.8,0.25186,112.33,162.15,64.377,0.25942,112.33,65.588,164.71,0.25562,cubic,0,3.431751498,H1a
mp-9969,ScSi,ScSi,101.33,179.32,74.4,0.20507,101.08,162.8,66.096,0.23157,101.21,70.248,171.15,0.21816,orthorhombic,0,3.33611577,H4
mp-16718,Al6Tc,Al6Tc,107.67,170.16,68.8,0.2366,107.25,164.81,66.249,0.24388,107.46,67.525,167.49,0.24022,orthorhombic,0,3.794005703,H4
mp-5986,BaTiO3,BaTiO3,124.33,194.76,78.6,0.23893,84.299,143.59,59.036,0.21611,104.32,68.818,169.24,0.22961,tetragonal,1.8298,5.748582892,H1a
mp-8285,ZnGeO3,ZnGeO3,165.89,171.85,64.733,0.32735,157.62,90.282,32.14,0.40454,161.76,48.436,132.12,0.36387,trigonal,2.3118,5.970667052,H2
mp-865400,ThPt3,ThPt3,181.11,130.96,47.467,0.37949,180.14,106.68,38.065,0.4013,180.63,42.766,118.91,0.39028,hexagonal,0,17.73708897,H4
mp-972069,Ti3Ga,Ti3Ga,118.11,170.03,67.467,0.26008,118.11,151.64,58.959,0.28601,118.11,63.213,160.93,0.27291,tetragonal,0,5.392146678,H4
mp-1274,CoS,CoS,160.11,142.87,52.867,0.35128,159.94,123.47,45.017,0.37134,160.02,48.942,133.24,0.36123,hexagonal,0,6.063260702,H4
mp-11441,Hf2Ga3,Hf2Ga3,116.78,163.77,64.667,0.26627,116.47,159.84,62.867,0.27127,116.62,63.767,161.81,0.26876,orthorhombic,0,10.56715015,H4
mp-30685,ZrGa3,ZrGa3,97.444,179.95,75.467,0.19222,96.822,166,68.356,0.21425,97.133,71.911,173.03,0.2031,tetragonal,0,7.060967035,H4
mp-972071,V3Mo,V3Mo,189,128.16,46.2,0.38699,189,97.113,34.331,0.41436,189,40.265,112.79,0.40054,cubic,0,7.371335048,H1a
mp-92,Si,Si,108.33,168.7,68,0.24046,107.23,165.32,66.499,0.24304,107.78,67.249,167.01,0.24174,tetragonal,0,3.041535544,H4
mp-840,SmRh2,SmRh2,139.67,151.45,57.4,0.31927,139.67,142.3,53.488,0.33019,139.67,55.444,146.89,0.32471,cubic,0,10.63683726,H1a