Material_ID,Formula,pretty_formula,KV ,EV ,GV ,PV ,KR ,ER ,GR ,PR ,bulk,shear,young,poisson,csyst,gap,density,y_cla
mp-862733,Pm2ZnSi,Pm2ZnSi,66.667,81.865,31.6,0.29534,66.667,70.603,26.673,0.32349,66.667,29.136,76.295,0.30926,cubic,0,6.719228652,H1a
mp-1250,Lu2In,Lu2In,58.889,82.849,32.733,0.26552,58.376,79.92,31.419,0.27183,58.633,32.076,81.387,0.26865,hexagonal,0,9.662458457,H4
mp-998414,CuAgF3,CuAgF3,87.667,62.435,22.6,0.3813,87.667,61.354,22.176,0.38336,87.667,22.388,61.895,0.38233,cubic,0,5.888990141,H1a
mp-865006,Dy2MgAl,Dy2MgAl,51,97.75,41.4,0.18056,51,72.952,28.912,0.2616,51,35.156,85.762,0.21973,cubic,0,6.285427913,H1a
mp-1021499,Cu2Se,Cu2Se,77.889,73.413,27.333,0.34291,73.78,66.677,24.707,0.34938,75.834,26.02,70.048,0.34605,tetragonal,0,6.631120223,H4
mp-864925,NdMgZn2,NdMgZn2,57.333,84.746,33.8,0.25364,57.333,79.282,31.225,0.26953,57.333,32.513,82.032,0.26154,cubic,0,5.790129079,H1a
mp-31152,CaGaPt,CaGaPt,83.222,68.999,25.333,0.36182,82.149,61.397,22.319,0.37544,82.686,23.826,65.215,0.36855,orthorhombic,0,8.284037172,H4
mp-1019564,Ca6Ge2O,Ca6Ge2O,42,90.391,39.6,0.1413,42,90,39.375,0.14286,42,39.487,90.196,0.14208,cubic,0.4331,2.993319557,H5
mp-983126,HoTmZn2,HoTmZn2,59,84.718,33.6,0.26068,59,76.957,30,0.28261,59,31.8,80.871,0.27155,cubic,0,8.681221851,H1a
mp-13916,LiCaSi2,LiCaSi2,51.111,90.716,37.667,0.20419,46.78,82.717,34.314,0.2053,48.945,35.99,86.716,0.20472,orthorhombic,0,2.129596173,H4
mp-1008506,BaGaSiH,BaGaSiH,48.889,94.162,39.933,0.17899,45.112,81.263,33.866,0.19978,47.001,36.9,87.738,0.18888,trigonal,0.7853,4.643219254,H2
mp-8236,Ba(PPd)2,Ba(PPd)2,62.111,84.249,33.067,0.27393,59.728,75.009,29.058,0.29069,60.92,31.062,79.649,0.28209,tetragonal,0,6.427579378,H4
mp-1008682,TiS2,TiS2,94.222,121.19,47.133,0.28563,26.237,38.853,15.501,0.2532,60.23,31.317,80.074,0.27842,tetragonal,0,3.916221505,H4
mp-1029466,NaNiN,NaNiN,60.889,68.128,25.933,0.31352,47.875,96.202,41.285,0.1651,54.382,33.609,83.604,0.24377,orthorhombic,0,3.625169752,H4
mp-20351,InP,InP,59.667,84.444,33.4,0.26412,59.667,76.172,29.588,0.28723,59.667,31.494,80.345,0.27557,cubic,0.4664,4.58162144,H5
mp-569683,InAu3,InAu3,109.44,50.294,17.667,0.42341,106.69,43.523,15.196,0.43201,108.07,16.432,46.917,0.42764,orthorhombic,0,15.31548938,H4
mp-562809,GdBi2BrO4,GdBi2BrO4,63.667,94.665,37.8,0.25219,51.215,68.46,26.801,0.27721,57.441,32.3,81.605,0.26322,tetragonal,1.1517,8.187904484,H1a
mp-20195,LaMnGe,LaMnGe,67.667,79.775,30.6,0.30351,67.27,70.628,26.652,0.32501,67.468,28.626,75.237,0.31414,tetragonal,0,6.50964845,H4
mp-504,CuS,CuS,80.556,77.997,29.133,0.33863,79.6,55.099,19.897,0.38463,80.078,24.515,66.735,0.3611,hexagonal,0,4.641682829,H4
mp-1008488,BiPd,BiPd,86.333,65.894,24,0.37279,86.319,58.842,21.221,0.38639,86.326,22.611,62.385,0.37956,hexagonal,0,11.25232611,H4
mp-19729,EuAsAu,EuAsAu,63.222,81.114,31.533,0.28617,58.062,78.068,30.593,0.2759,60.642,31.063,79.599,0.28123,hexagonal,0,9.691224049,H4
mp-2988,Li2GaRh,Li2GaRh,58.667,96.579,39.4,0.22563,58.667,63.861,24.216,0.31858,58.667,31.808,80.818,0.2704,cubic,0,5.714004516,H1a
mp-5910,CaCuSb,CaCuSb,56.889,88.641,35.733,0.24031,47.583,80.572,33.082,0.21778,52.236,34.407,84.639,0.22995,hexagonal,0,5.281944083,H4
mp-864603,YbH2,YbH2,50.444,86.198,35.467,0.2152,49.717,85.499,35.232,0.21338,50.081,35.349,85.849,0.2143,orthorhombic,2.8872,8.473485365,H2
mp-1453,NdSe,NdSe,72.667,94.894,37,0.28235,72.667,46.587,16.72,0.39315,72.667,26.86,71.741,0.33546,cubic,0,6.91682855,H1a
mp-9564,Ca(MgAs)2,Ca(MgAs)2,50.222,86.257,35.533,0.21375,49.535,85.608,35.318,0.21196,49.878,35.426,85.933,0.21286,trigonal,1.2584,3.332020471,H2
mp-23703,LiH,LiH,36.667,92.745,43,0.078431,36.667,91.301,42.074,0.084998,36.667,42.537,92.025,0.081705,cubic,3.1751,0.824862689,H2
mp-28567,LiBiF4,LiBiF4,72.444,74.099,27.867,0.32953,71.033,70.528,26.425,0.33452,71.739,27.146,72.316,0.33199,tetragonal,4.8768,5.963331903,H4
mp-12684,LaAl,LaAl,53.333,85.344,34.6,0.2333,52.348,83.107,33.636,0.2354,52.84,34.118,84.226,0.23434,orthorhombic,0,5.190966771,H4
mp-795,LiSi,LiSi,52.111,87.521,35.867,0.22008,51.992,81.755,33.021,0.23792,52.051,34.444,84.658,0.22893,tetragonal,0,1.863380504,H4
mp-753826,LiCuS,LiCuS,62.222,82.679,32.333,0.27854,62.221,74.139,28.484,0.30141,62.222,30.409,78.447,0.28987,orthorhombic,1.076,4.025209233,H2
mp-568424,CaAlAu,CaAlAu,67,79.671,30.6,0.30181,66.796,71.1,26.879,0.32259,66.898,28.74,75.419,0.3121,orthorhombic,0,6.72181297,H4
mp-21844,UTl3,UTl3,47,88.303,37.2,0.18687,47,86.378,36.181,0.1937,47,36.69,87.343,0.19027,cubic,0,13.07685857,H1a
mp-2137,Mg2Ni,Mg2Ni,65.667,79.458,30.6,0.29833,65.635,72.931,27.734,0.31481,65.651,29.167,76.215,0.30652,hexagonal,0,3.481329007,H4
mp-754185,Y2MgNi2,Y2MgNi2,70.556,77.289,29.333,0.31743,70.278,68.751,25.712,0.33696,70.417,27.523,73.05,0.3271,tetragonal,0,5.230370053,H4
mp-861588,Pr2CuRu,Pr2CuRu,78,68.25,25.2,0.35417,78,67.574,24.924,0.35561,78,25.062,67.912,0.35489,cubic,0,8.058807236,H1a
mp-4026,KCrS2,KCrS2,49.444,90.116,37.667,0.19624,48.874,82.115,33.654,0.21998,49.159,35.661,86.15,0.20792,trigonal,1.1852,3.115617102,H2
mp-19241,BaNiO3,BaNiO3,83.333,98.506,37.8,0.30299,83.145,26.134,9.0266,0.44761,83.239,23.413,64.219,0.37142,hexagonal,1.5467,5.928568863,H1a
mp-29175,Ca2AuN,Ca2AuN,59.111,81.468,32.067,0.2703,59.006,79.098,30.98,0.27658,59.058,31.523,80.286,0.27343,orthorhombic,0.0888,5.981052457,H2
mp-989553,Cs2TlGaH6,Cs2TlGaH6,80,66.939,24.6,0.36054,80,65.971,24.208,0.36256,80,24.404,66.455,0.36155,cubic,0.6594,5.197184406,H5
mp-18707,Mg3Pt,Mg3Pt,69.444,76.061,28.867,0.31745,69.421,70.986,26.695,0.32958,69.433,27.781,73.535,0.32349,hexagonal,0,5.788568514,H4
mp-11770,CoCu2SnS4,CoCu2SnS4,71.778,76.829,29.067,0.3216,71.723,67.065,24.947,0.34416,71.75,27.007,71.988,0.33278,tetragonal,0,4.580400771,H4
mp-1447,SmSe,SmSe,73,96.708,37.8,0.27921,73,43.105,15.377,0.40159,73,26.589,71.13,0.3376,cubic,0,7.402714164,H1a
mp-23033,Sr2NCl,Sr2NCl,57.111,82.73,32.867,0.25857,55.025,81.257,32.402,0.25388,56.068,32.634,81.995,0.25627,trigonal,1.9839,3.955978688,H2
mp-574283,GdTe,GdTe,75.333,88.208,33.8,0.30485,75.333,49.636,17.852,0.39019,75.333,25.826,69.533,0.34617,cubic,0,7.735900023,H1a
mp-866077,MgSc2Cd,MgSc2Cd,59.333,96.376,39.2,0.22928,59.333,62.313,23.515,0.32496,59.333,31.357,79.982,0.27533,cubic,0,4.166068508,H1a
mp-752730,Ba2GeO4,Ba2GeO4,64.778,79.461,30.667,0.29556,63.724,74.037,28.337,0.30636,64.251,29.502,76.758,0.30089,monoclinic,3.9678,5.534006157,H2
mp-983154,Pm2ZnPt,Pm2ZnPt,80.333,65.975,24.2,0.36312,80.333,65.875,24.16,0.36333,80.333,24.18,65.925,0.36323,cubic,0,9.622880095,H1a
mp-23710,MgH2,MgH2,51.111,89.552,37.067,0.20798,48.465,81.316,33.317,0.22036,49.788,35.192,85.443,0.21397,tetragonal,3.8997,1.423870416,H4
mp-567456,CaGe2,CaGe2,44.222,88.859,38.133,0.16511,44.199,87.784,37.547,0.16898,44.211,37.84,88.322,0.16704,trigonal,0,4.196863587,H2
mp-12558,LiMgAs,LiMgAs,46.333,87.29,36.8,0.18601,46.333,87.178,36.74,0.18641,46.333,36.77,87.234,0.18621,cubic,0,2.939833911,H1a
mp-30497,TbCd2,TbCd2,58.444,83.884,33.267,0.26079,54.236,79.284,31.553,0.25636,56.34,32.41,81.585,0.25865,hexagonal,0,8.525084442,H4
mp-1025158,K2PuO4,K2PuO4,74.889,79.709,30.133,0.32261,69.72,62.774,23.251,0.34994,72.305,26.692,71.302,0.33564,tetragonal,0,5.099319212,H4
mp-981458,YbTa,YbTa,69.444,78.366,29.867,0.31192,68.855,68.315,25.593,0.33464,69.15,27.73,73.381,0.32314,hexagonal,0,13.0697566,H4
mp-30799,NdTlPd,NdTlPd,72.778,72.719,27.267,0.33347,72.557,69.316,25.849,0.34078,72.668,26.558,71.022,0.33711,hexagonal,0,10.42550637,H4
mp-977404,Nd2AgIr,Nd2AgIr,90.667,59.517,21.4,0.39059,90.667,57.577,20.649,0.39416,90.667,21.025,58.548,0.39237,cubic,0,10.14765093,H1a
mp-985439,BaPAu,BaPAu,57.778,82.46,32.667,0.26214,55.618,80.107,31.79,0.25995,56.698,32.228,81.284,0.26106,hexagonal,0,7.635694501,H4
mp-9577,Ca3(AlSi)2,Ca3(AlSi)2,51,87.429,36,0.21429,48.146,83.409,34.43,0.21127,49.573,35.215,85.419,0.21282,orthorhombic,0,2.226696673,H4
mp-4255,Ba(CuS)2,Ba(CuS)2,66.222,78.946,30.333,0.30131,66.193,71.544,27.103,0.31986,66.207,28.718,75.271,0.31052,tetragonal,0.506,5.623165232,H1a
mp-1018699,EuZnGe,EuZnGe,49.889,90.407,37.733,0.19797,43.558,83.396,35.31,0.1809,46.723,36.522,86.919,0.18995,orthorhombic,0,6.850560853,H4
mp-19832,BaCoS2,BaCoS2,59.333,88.583,35.4,0.25117,56.393,72.331,28.118,0.28623,57.863,31.759,80.541,0.26801,tetragonal,0,5.019070023,H4
mp-768572,YAl3O6,YAl3O6,67.222,105.38,42.533,0.23874,34.187,63.829,26.845,0.18882,50.704,34.689,84.742,0.22145,monoclinic,4.124,3.3294361,H2
mp-865522,YCdAu2,YCdAu2,87.667,65.475,23.8,0.37552,87.667,55.631,19.95,0.39424,87.667,21.875,60.586,0.38482,cubic,0,11.53018024,H1a
mp-20474,MnCu2GeS4,MnCu2GeS4,70.111,74.287,28.067,0.32341,69.784,71.177,26.758,0.33001,69.948,27.412,72.735,0.32669,orthorhombic,0.2651,4.126748134,H2
mp-862728,Pm2ZnRu,Pm2ZnRu,80.333,65.975,24.2,0.36312,80.333,65.263,23.913,0.3646,80.333,24.057,65.619,0.36386,cubic,0,8.311207259,H1a
mp-30839,Th3Pd5,Th3Pd5,93.556,61.031,21.933,0.39128,89.87,54.065,19.312,0.39974,91.713,20.623,57.555,0.39541,hexagonal,0,11.45323039,H4
mp-971979,Tm2ZnAg,Tm2ZnAg,65,80.69,31.2,0.2931,65,70.838,26.866,0.31837,65,29.033,75.811,0.30561,cubic,0,9.364122857,H1a
mp-675180,ErCuSe2,ErCuSe2,65.111,79.516,30.667,0.29646,65.086,71.846,27.297,0.31602,65.099,28.982,75.71,0.30617,trigonal,1.0459,7.06303197,H2
mp-3808,K2UO4,K2UO4,64.556,86.622,33.933,0.27636,58.578,69.194,26.549,0.30313,61.567,30.241,77.959,0.28896,tetragonal,1.9911,4.93491632,H1a
mp-1903,BaAl4,BaAl4,51.111,84.823,34.667,0.2234,50.437,84.045,34.38,0.22228,50.774,34.524,84.434,0.22284,tetragonal,0,3.425431948,H4
mp-972882,Sc2CdAg,Sc2CdAg,76,86.483,33,0.31034,76,49.12,17.64,0.39228,76,25.32,68.368,0.35007,cubic,0,6.020267155,H1a
mp-6952,RbYbF3,RbYbF3,59.667,84.444,33.4,0.26412,59.667,73.565,28.414,0.29451,59.667,30.907,79.069,0.27914,cubic,6.8653,5.950545202,H2
mp-30725,YHg2,YHg2,66.556,77.638,29.733,0.30558,62.337,74.413,28.597,0.30105,64.446,29.165,76.027,0.30338,hexagonal,0,11.02884466,H4
mp-7770,Sr(ZnAs)2,Sr(ZnAs)2,54.333,84.806,34.2,0.23986,54.251,79.819,31.806,0.25479,54.292,33.003,82.327,0.24727,trigonal,0.2562,5.301563193,H2
mp-3078,CdSiAs2,CdSiAs2,59.667,83.161,32.8,0.26771,59.495,74.973,29.06,0.28997,59.581,30.93,79.102,0.27873,tetragonal,0.8904,4.851958749,H1a
mp-1001914,Li2SnIr,Li2SnIr,70,116.01,47.4,0.22378,70,20.564,7.0859,0.45104,70,27.243,72.344,0.32775,cubic,0,9.35315622,H1a
mp-865446,Lu2AgHg,Lu2AgHg,80.333,76.218,28.4,0.34187,80.333,54.041,19.469,0.38788,80.333,23.935,65.317,0.36449,cubic,0,11.61256392,H1a
mp-625074,Ni(HO)2,Ni(HO)2,60.333,93.809,37.8,0.24086,41.278,74.523,31.074,0.1991,50.806,34.437,84.271,0.22355,monoclinic,0,3.778452135,H4
mp-18316,Mg2Pd,Mg2Pd,69,73.059,27.6,0.32353,69,72.743,27.465,0.32429,69,27.532,72.901,0.32391,cubic,0,4.602694709,H1a
mp-754673,Er6Te2Ru,Er6Te2Ru,64.222,83.061,32.333,0.28444,63.897,69.021,26.145,0.31997,64.06,29.239,76.134,0.30192,hexagonal,0,9.531202145,H4
mp-1028,V3Te4,V3Te4,53.333,85.344,34.6,0.2333,53.142,80.228,32.133,0.24838,53.237,33.366,82.801,0.24078,monoclinic,0,6.501456292,H4
mp-866174,ThSnAu2,ThSnAu2,101.33,59.454,21.2,0.40221,101.33,40.934,14.286,0.43268,101.33,17.743,50.293,0.41728,cubic,0,13.17133218,H1a
mp-3398,Ho2Ni2Pb,Ho2Ni2Pb,68.111,85.827,33.267,0.28998,67.838,60.541,22.402,0.35126,67.975,27.834,73.474,0.31985,orthorhombic,0,10.45481454,H4
mp-11361,MgCuSn,MgCuSn,63,77.671,30,0.29452,63,75.749,29.143,0.29961,63,29.571,76.712,0.29706,cubic,0,5.655490702,H1a
mp-22313,Na2PtO2,Na2PtO2,73.222,89.077,34.333,0.29724,67.317,54.015,19.767,0.36627,70.27,27.05,71.922,0.32941,orthorhombic,1.5138,6.398651772,H2
mp-567290,LaN,LaN,91.444,66.377,24.067,0.37902,81.512,55.164,19.883,0.38721,86.478,21.975,60.776,0.38287,hexagonal,1.1489,5.760193162,H1a
mp-2251,Li3N,Li3N,51.889,93.816,39.133,0.19867,51.861,72.537,28.628,0.26689,51.875,33.881,83.47,0.23182,hexagonal,0.9986,1.288608955,H1a
mp-22052,Zn(InS2)2,Zn(InS2)2,66.333,80.016,30.8,0.29896,66.333,68.879,25.954,0.32694,66.333,28.377,74.507,0.3128,cubic,1.5312,4.523610598,H5
mp-495,LuGa3,LuGa3,60.667,78.147,30.4,0.28531,60.667,78.107,30.382,0.28542,60.667,30.391,78.127,0.28537,cubic,0,8.47240929,H1a
mp-867924,LiCdPd2,LiCdPd2,90.333,77.118,28.4,0.35772,90.333,37.887,13.246,0.4301,90.333,20.823,58.012,0.39297,cubic,0,8.580620022,H1a
mp-971914,SrSiPt,SrSiPt,67.333,77.451,29.6,0.30829,67.333,70.113,26.429,0.32645,67.333,28.014,73.807,0.31731,cubic,0,7.335512606,H1a
mp-1364,YNi,YNi,78.889,70.117,25.933,0.35187,78.416,62.097,22.696,0.36802,78.652,24.315,66.129,0.35987,orthorhombic,0,6.05878909,H4
mp-14791,Ge2Te5As2,Ge2Te5As2,49,94.332,40,0.17914,46.874,76.515,31.156,0.22794,47.937,35.578,85.565,0.20251,trigonal,0.5946,6.081727514,H2
mp-7711,Ag2O,Ag2O,91.889,69.604,25.333,0.37375,75.842,55.355,20.08,0.37836,83.865,22.707,62.481,0.37583,trigonal,0,8.614878187,H2
mp-21027,CaIn2Pt,CaIn2Pt,67.333,78.362,30,0.30603,66.954,69.261,26.085,0.32759,67.144,28.043,73.847,0.31669,orthorhombic,0,8.273734822,H4
mp-570689,CaInPt,CaInPt,72.889,73.835,27.733,0.33117,70.979,67.397,25.116,0.34174,71.934,26.424,70.625,0.33636,orthorhombic,0,8.430936288,H4
mp-570272,Tb2Mg3Ni2,Tb2Mg3Ni2,46.111,53.031,20.267,0.30832,87.98,94.65,35.833,0.3207,67.045,28.05,73.851,0.31642,orthorhombic,0,5.573214295,H4
mp-973646,Lu2ZnHg,Lu2ZnHg,72.333,80.915,30.8,0.31356,72.333,59.333,21.761,0.36329,72.333,26.281,70.325,0.33796,cubic,0,11.11077066,H1a
mp-9898,BaCuAs,BaCuAs,52.778,83.29,33.667,0.23698,52.526,82.097,33.117,0.2395,52.652,33.392,82.694,0.23824,hexagonal,0,5.950988513,H4
mp-19163,SrWO4,SrWO4,63.889,79.013,30.533,0.29388,63,73.058,27.955,0.30672,63.444,29.244,76.048,0.30023,tetragonal,4.682,6.025777737,H4
mp-961670,HfSiPt,HfSiPt,125.67,49.349,17.2,0.43455,125.67,14.082,4.7531,0.48132,125.67,10.977,31.998,0.45756,cubic,0,12.11208671,H1a
mp-11369,ErHg2,ErHg2,65.222,78.786,30.333,0.29867,60.542,73.88,28.49,0.29661,62.882,29.412,76.334,0.29768,hexagonal,0,13.06418717,H4
mp-996979,BaAgO2,BaAgO2,76.889,83.687,31.733,0.3186,58.224,62.886,23.821,0.31999,67.556,27.777,73.287,0.3192,orthorhombic,0,6.041041426,H4
mp-976793,LiEr2Ga,LiEr2Ga,57,86.746,34.8,0.24636,57,72.968,28.356,0.28664,57,31.578,79.967,0.26618,cubic,0,7.497248199,H1a
mp-36209,TmCuSe2,TmCuSe2,65.889,78.442,30.133,0.30158,65.839,70.121,26.511,0.32249,65.864,28.322,74.314,0.31195,trigonal,1.1916,7.143204298,H2
mp-996981,TlAuO2,TlAuO2,105.44,58.726,20.867,0.40718,90.498,45.395,16.025,0.4164,97.971,18.446,52.069,0.41142,trigonal,0,10.4848233,H2
mp-1008500,BaO,BaO,66.667,79.167,30.4,0.30208,66.401,68.447,25.767,0.3282,66.534,28.084,73.859,0.31498,hexagonal,2.4251,5.927027226,H1b
mp-977586,MgSc2In,MgSc2In,43.333,105.49,48.2,0.094276,43.333,67.092,27.011,0.24195,43.333,37.605,87.504,0.16345,cubic,0,4.212973716,H1a
mp-765499,Li3VF6,Li3VF6,55.667,89.658,36.4,0.23156,51.87,73.764,29.202,0.26298,53.768,32.801,81.775,0.24652,trigonal,2.4394,2.885412193,H2
mp-20034,CaPb,CaPb,49.778,91.763,38.467,0.19276,48.454,76.883,31.113,0.23554,49.116,34.79,84.434,0.21349,tetragonal,0,6.784425737,H4
mp-9179,Ba3Zr2S7,Ba3Zr2S7,59.556,81.274,31.933,0.27255,59.462,75.177,29.154,0.28929,59.509,30.544,78.245,0.28086,tetragonal,0.5178,4.140409367,H1a
mp-1008786,MgTe,MgTe,54.333,81.5,32.6,0.25,54.333,81.308,32.508,0.25059,54.333,32.554,81.404,0.25029,cubic,0.6289,4.720268834,H5
mp-862841,LiPm2Os,LiPm2Os,72.667,71.598,26.8,0.33578,72.667,67.528,25.101,0.34512,72.667,25.951,69.57,0.34044,cubic,0,9.004017351,H1a
mp-634859,CaO2,CaO2,81.222,105.14,40.933,0.28426,40.441,49.391,19.049,0.29645,60.832,29.991,77.274,0.28829,tetragonal,2.8357,3.150819563,H4
mp-977553,Yb2PtAu,Yb2PtAu,66.333,74.559,28.4,0.31266,66.333,72.875,27.669,0.3169,66.333,28.035,73.718,0.31478,cubic,0,14.18423447,H1a
mp-1556,PuTe,PuTe,70.667,87.902,34,0.29268,70.667,52.652,19.135,0.37582,70.667,26.567,70.826,0.33296,cubic,0,9.882269206,H1a
mp-996975,CuAgO2,CuAgO2,113.11,64.269,22.867,0.4053,98.79,27.012,9.2861,0.45443,105.95,16.076,45.907,0.42779,orthorhombic,0,6.304047486,H4
mp-510488,SmMnSbO,SmMnSbO,59.222,79.907,31.333,0.27512,58.586,76.828,29.977,0.28144,58.904,30.655,78.371,0.27825,tetragonal,0,6.651392096,H4
mp-20545,Cu3AsS4,Cu3AsS4,74,72.217,27,0.33735,74,64.664,23.872,0.35436,74,25.436,68.464,0.3458,cubic,0,4.371208352,H1a
mp-966800,InP,InP,57.778,80.325,31.667,0.26829,57.737,77.769,30.486,0.27551,57.757,31.076,79.051,0.27189,hexagonal,0.5138,4.5691581,H1a
mp-13982,CdCu2GeS4,CdCu2GeS4,66.778,74.775,28.467,0.31337,66.562,71.633,27.121,0.32064,66.67,27.794,73.208,0.31699,orthorhombic,0.3826,4.497222096,H2
mp-29011,BiTePd,BiTePd,73.333,69.756,26,0.34146,73.333,67.692,25.143,0.34615,73.333,25.571,68.726,0.3438,cubic,0,9.539425424,H1a
mp-3397,Ba2TiO4,Ba2TiO4,64.111,77.107,29.667,0.29955,63.782,72.644,27.723,0.31017,63.946,28.695,74.884,0.30483,monoclinic,4.1439,4.964862971,H2
mp-867207,Sr2HgPb,Sr2HgPb,54.667,80.746,32.2,0.25382,54.667,80.608,32.134,0.25424,54.667,32.167,80.677,0.25403,cubic,0.1811,7.092677638,H5
mp-142,Ga,Ga,49.889,84.573,34.733,0.21746,49.467,82.561,33.786,0.22183,49.678,34.259,83.568,0.21963,orthorhombic,0,5.7425834,H4
mp-8299,Sr4As2O,Sr4As2O,50.556,83.987,34.333,0.22312,49.873,82.52,33.703,0.22423,50.214,34.018,83.254,0.22367,tetragonal,1.2166,4.368382027,H1a
mp-864901,LaAu3,LaAu3,81.556,70.344,25.933,0.35625,71.324,62.636,23.136,0.35363,76.44,24.535,66.491,0.35503,hexagonal,0,13.18996107,H4
mp-979176,Tm2AgHg,Tm2AgHg,73.333,75.459,28.4,0.3285,73.333,61.342,22.542,0.36059,73.333,25.471,68.485,0.34435,cubic,0,11.1680386,H1a
mvc-11152,YSbO3,YSbO3,89.333,88.622,33.2,0.33466,89.333,23.251,7.981,0.45662,89.333,20.59,57.364,0.39298,cubic,0,5.593683733,H1a
mp-12572,CaPd3C,CaPd3C,115,54.563,19.2,0.42092,115,22.595,7.6996,0.46725,115,13.45,38.835,0.44372,cubic,0,7.856027456,H1a
mp-496,SrSi2,SrSi2,58.333,83.718,33.2,0.26081,58.333,72.658,28.11,0.29241,58.333,30.655,78.256,0.27641,cubic,0.0527,3.37734147,H5
mp-11461,HoHg2,HoHg2,64.444,77.611,29.867,0.29928,59.857,74.068,28.625,0.29376,62.151,29.246,75.842,0.29662,hexagonal,0,12.92061232,H4
mp-22864,Bi2Pt,Bi2Pt,81.667,65.078,23.8,0.36719,81.667,60.335,21.91,0.37687,81.667,22.855,62.715,0.37201,cubic,0,12.76237715,H1a
mp-3033,RbTaO3,RbTaO3,73,79.157,30,0.31928,63.864,64.269,24.12,0.33228,68.432,27.06,71.726,0.32531,monoclinic,3.5455,6.063976018,H2
mp-867194,Sr(MgAs)2,Sr(MgAs)2,47.556,84.959,35.333,0.20225,47.367,84.202,34.976,0.20372,47.461,35.155,84.581,0.20298,trigonal,1.3437,3.730989653,H2
mp-754358,ZnSeO4,ZnSeO4,61.778,80.699,31.467,0.28229,55.084,75.604,29.736,0.27125,58.431,30.601,78.159,0.27706,orthorhombic,1.8656,4.53725415,H2
mp-13276,SrLiP,SrLiP,44.778,87.152,37.067,0.17561,43.716,85.286,36.297,0.17485,44.247,36.682,86.219,0.17523,hexagonal,1.3466,3.105522188,H1a
mp-861508,Pr2ZnIr,Pr2ZnIr,82.667,62.137,22.6,0.37472,82.667,61.724,22.436,0.37556,82.667,22.518,61.931,0.37514,cubic,0,9.321617448,H1a
mp-7275,BaSi2,BaSi2,51,85.054,34.8,0.22204,51,80.025,32.308,0.23848,51,33.554,82.556,0.23021,cubic,0.0154,4.139450158,H5
mp-281,YbCo2,YbCo2,85.667,60.796,22,0.38172,85.187,59.037,21.321,0.38449,85.427,21.66,59.917,0.3831,cubic,0,10.7599651,H1a
mp-1008483,CdN,CdN,103.22,64.576,23.133,0.39573,97.131,33.736,11.697,0.44211,100.18,17.415,49.383,0.41784,hexagonal,0,7.37671609,H4
mp-11367,DyHg2,DyHg2,63.444,77.447,29.867,0.29655,59.96,74.369,28.752,0.29328,61.702,29.309,75.909,0.29496,hexagonal,0,12.75270683,H4
mp-182,SrGa2,SrGa2,55.556,79.973,31.733,0.26008,55.375,79.529,31.543,0.26063,55.465,31.638,79.751,0.26036,hexagonal,0,4.754548009,H4
mp-505331,CeMnSi,CeMnSi,86.778,90.374,34.067,0.32643,79.213,30.473,10.611,0.43588,82.995,22.339,61.499,0.3765,tetragonal,0,6.642875721,H4
mp-675402,CuAgO2,CuAgO2,111.56,64.388,22.933,0.4038,97.994,26.959,9.2698,0.45415,104.77,16.102,45.951,0.42691,triclinic,0,7.440587967,H4
mp-2863,CeCd3,CeCd3,68.667,76.724,29.2,0.31378,68.667,65.726,24.516,0.34047,68.667,26.858,71.281,0.32699,cubic,0,8.063535673,H1a
mp-19746,NbPbS2,NbPbS2,69.222,94.07,36.933,0.27351,69.222,45.587,16.395,0.39024,69.222,26.664,70.89,0.32932,hexagonal,0,6.755714563,H4