Material_ID,Formula,pretty_formula,KV ,EV ,GV ,PV ,KR ,ER ,GR ,PR ,bulk,shear,young,poisson,csyst,gap,density,y_cla
mp-866227,CaNdRh2,CaNdRh2,82,70.053,25.8,0.35762,82,69.842,25.714,0.35804,82,25.757,69.948,0.35783,cubic,0,7.63983858,H1a
mp-27388,Ba(SiNi)2,Ba(SiNi)2,56.333,103.6,43.4,0.1935,47.699,74.19,29.897,0.24077,52.016,36.648,89.035,0.21472,orthorhombic,0,5.179847832,H4
mp-2724,TbSb,TbSb,56,94.957,39,0.21739,56,78.148,30.83,0.26742,56,34.915,86.722,0.2419,cubic,0,7.713228423,H1a
mp-1001012,Sc2ZnS4,Sc2ZnS4,63.333,84.785,33.2,0.27688,63.333,79.672,30.872,0.29034,63.333,32.036,82.242,0.28357,cubic,0.8259,3.208076635,H5
mp-551092,KLiZnO2,KLiZnO2,58.889,89.165,35.733,0.24765,56.535,82.151,32.656,0.25782,57.712,34.195,85.665,0.25261,monoclinic,2.3118,3.55677577,H2
mp-7951,ThSe2,ThSe2,78.111,76.149,28.467,0.33752,76.943,69.589,25.788,0.34926,77.527,27.127,72.881,0.34332,orthorhombic,0.6468,8.352558487,H2
mp-865671,Y2ZnIn,Y2ZnIn,61.333,90.747,36.2,0.25341,61.333,75.841,29.307,0.29391,61.333,32.753,83.412,0.27334,cubic,0,5.928789887,H1a
mp-622041,ThInAu2,ThInAu2,103.33,54.772,19.4,0.41166,103.33,54.697,19.372,0.41178,103.33,19.386,54.735,0.41172,cubic,0,13.27429308,H1a
mp-10667,SrAgP,SrAgP,58.444,88.498,35.467,0.24763,53.376,84.597,34.227,0.23584,55.91,34.847,86.557,0.24197,hexagonal,0,5.260779235,H4
mp-8053,YCo,YCo,70,81.947,31.4,0.30489,69.553,73.613,27.808,0.3236,69.777,29.604,77.808,0.31415,orthorhombic,0,6.04034622,H4
mp-16886,CdAu,CdAu,92.111,69.953,25.467,0.37343,92.051,55.003,19.638,0.40041,92.081,22.552,62.551,0.38678,trigonal,0,13.08950567,H2
mp-669347,KCuF3,KCuF3,75.333,78.516,29.6,0.32629,75.206,69.674,25.89,0.34559,75.27,27.745,74.127,0.33586,tetragonal,0,3.855722868,H4
mp-20265,LiIn2Pt,LiIn2Pt,77.667,90.379,34.6,0.30605,77.667,53.517,19.318,0.38516,77.667,26.959,72.49,0.34444,cubic,0,9.874221536,H1a
mp-1211,ScCd,ScCd,67,96.722,38.4,0.2594,67,61.196,22.703,0.34777,67,30.551,79.561,0.30209,cubic,0,5.855860322,H1a
mp-569668,VSe,VSe,49.111,90.373,37.867,0.1933,49.097,90.051,37.7,0.19431,49.104,37.783,90.212,0.19381,hexagonal,0,6.064617288,H4
mp-866146,LiSm2Ir,LiSm2Ir,75.667,74.776,28,0.33529,75.667,72.869,27.2,0.3395,75.667,27.6,73.824,0.33739,cubic,0,9.234872705,H1a
mp-34735,Ho2CdS4,Ho2CdS4,66.667,84.536,32.8,0.28866,63.124,77.214,29.786,0.29613,64.896,31.293,80.879,0.29228,tetragonal,0.7659,5.693079897,H1a
mp-978089,Pr2IrAu,Pr2IrAu,91,64.658,23.4,0.38158,91,61.76,22.266,0.38689,91,22.833,63.212,0.38423,cubic,0,11.37990283,H1a
mp-550111,SmBi2BrO4,SmBi2BrO4,70.444,95.906,37.667,0.27309,56.268,67.501,25.961,0.30006,63.356,31.814,81.757,0.28493,tetragonal,1.3463,8.026407564,H1a
mp-976588,HoTh3,HoTh3,53.333,92.121,38,0.21212,53.333,83.008,33.455,0.2406,53.333,35.727,87.617,0.2262,cubic,0,11.21843165,H1a
mp-978555,Sm2CdIr,Sm2CdIr,88.333,65.01,23.6,0.37734,88.333,64.612,23.443,0.37809,88.333,23.521,64.811,0.37771,cubic,0,10.42313716,H1a
mp-30358,TbAg2,TbAg2,74.444,80.892,30.667,0.3189,73.309,68.441,25.454,0.3444,73.876,28.06,74.721,0.33143,tetragonal,0,9.408020294,H4
mp-589,TbFe2,TbFe2,103,60.566,21.6,0.402,102.71,48.282,16.981,0.42166,102.86,19.29,54.466,0.41174,cubic,0,9.239367935,H1a
mp-33667,LiDyS2,LiDyS2,60,92.898,37.4,0.24195,48.476,81.071,33.192,0.22127,54.238,35.296,87.013,0.23262,tetragonal,1.9742,4.705035094,H1a
mp-18963,Ba2Mn3(AsO)2,Ba2Mn3(AsO)2,51,91.319,38,0.20157,48.858,87.478,36.401,0.20159,49.929,37.2,89.398,0.20158,tetragonal,0,5.354906384,H4
mp-568320,Y4Sb3,Y4Sb3,65.333,82.526,32,0.28947,65.333,77.894,29.93,0.30129,65.333,30.965,80.221,0.29536,cubic,0,6.090616286,H1a
mp-973826,LiHoSn2,LiHoSn2,51.667,8.251,2.8,0.47338,51.667,144.67,70,0.033333,51.667,36.4,88.433,0.21473,cubic,0,6.908167183,H1a
mp-9570,Ca(CdP)2,Ca(CdP)2,57.222,86.25,34.533,0.24879,56.005,84.882,34.024,0.2474,56.613,34.279,85.566,0.2481,trigonal,0.8209,4.745561921,H2
mp-7942,NaTiS2,NaTiS2,51.889,92.277,38.333,0.20361,51.528,84.409,34.397,0.22698,51.708,36.365,88.378,0.21514,trigonal,0,3.025204216,H2
mp-11300,TiCdHg2,TiCdHg2,72.556,81.253,30.933,0.31335,72.544,69.523,25.936,0.34027,72.55,28.435,75.448,0.32668,tetragonal,0,11.2591254,H4
mp-552098,Bi2SeO2,Bi2SeO2,79.444,87.114,33.067,0.31724,76.437,55.879,20.273,0.37816,77.941,26.67,71.818,0.34643,tetragonal,0.3987,9.181539094,H1a
mp-972884,Sc2AlCu,Sc2AlCu,57.667,99.826,41.2,0.21148,57.667,68.908,26.486,0.30084,57.667,33.843,84.917,0.25457,cubic,0,4.019695775,H1a
mp-10965,DyAgSb2,DyAgSb2,65.111,87.458,34.267,0.27613,61.2,75.554,29.188,0.29424,63.156,31.728,81.53,0.28484,tetragonal,0,8.635432485,H4
mp-9912,Li2CeP2,Li2CeP2,55.333,87.533,35.4,0.23635,54.92,85.251,34.34,0.24129,55.126,34.87,86.394,0.2388,trigonal,0.8349,3.610845375,H2
mp-5615,CaAgAs,CaAgAs,53.222,87.596,35.733,0.22569,53.195,87.391,35.635,0.22619,53.209,35.684,87.493,0.22594,hexagonal,0.1257,5.629999413,H1a
mp-680671,Mg4Zn7,Mg4Zn7,61.556,83.414,32.733,0.27415,61.501,81.464,31.841,0.27923,61.528,32.287,82.441,0.27668,monoclinic,0,4.902721695,H4
mp-30273,AcClO,AcClO,67.778,82.647,31.867,0.29677,66,75.355,28.768,0.30971,66.889,30.317,79.014,0.30312,tetragonal,4.738,7.056770297,H4
mp-22498,CrSb2,CrSb2,62.889,93.08,37.133,0.25332,61.655,70.341,26.851,0.30985,62.272,31.992,81.943,0.28068,orthorhombic,0,6.898917739,H4
mp-314,Th3Ge2,Th3Ge2,84.778,71.424,26.267,0.35959,84.636,62.507,22.698,0.37691,84.707,24.482,66.993,0.36819,tetragonal,0,10.5001476,H4
mp-12177,Te2O5,Te2O5,54.889,108.48,46.333,0.17062,37.743,73.576,31.306,0.1751,46.316,38.82,91.028,0.17244,monoclinic,1.6966,5.292071682,H4
mp-1013554,Sr3PN,Sr3PN,47.333,92.159,39.2,0.1755,47.333,88.778,37.383,0.1874,47.333,38.292,90.477,0.18142,cubic,0.5197,3.897567363,H5
mp-13149,BaAlSi,BaAlSi,49.889,91.171,38.133,0.19542,47,88.624,37.371,0.18573,48.444,37.752,89.903,0.1907,hexagonal,0,3.806505582,H4
mp-16766,LaAl2Ag3,LaAl2Ag3,85,73.245,27,0.35638,84.182,60.653,21.977,0.37992,84.591,24.489,67,0.36799,hexagonal,0,6.882276968,H4
mp-22609,Eu(CdP)2,Eu(CdP)2,55.444,86.883,35.067,0.23883,54.466,85.64,34.59,0.23794,54.955,34.828,86.262,0.23839,trigonal,0,6.19856427,H2
mp-464,HoSe,HoSe,81.667,99.142,38.2,0.29767,81.667,35.769,12.533,0.427,81.667,25.366,68.959,0.35927,cubic,0,8.588296322,H1a
mp-568172,Ca3N2,Ca3N2,68.111,86.713,33.667,0.28782,67.444,69.547,26.182,0.32814,67.778,29.924,78.256,0.30757,monoclinic,1.5806,2.809315325,H4
mp-1025378,V2FeTe4,V2FeTe4,53.889,92.173,37.933,0.21493,53.429,81.522,32.721,0.2457,53.659,35.327,86.909,0.23006,monoclinic,0,6.915054524,H4
mp-15686,Li2CuAs,Li2CuAs,53.556,94.406,39.133,0.20621,46.875,83.223,34.558,0.2041,50.215,36.846,88.815,0.20522,hexagonal,0,4.188176015,H4
mp-971924,DyYAg2,DyYAg2,68,79.826,30.6,0.30435,68,76.246,29.032,0.31312,68,29.816,78.042,0.30872,cubic,0,7.987369266,H1a
mp-571339,Ba(CrAs)2,Ba(CrAs)2,57.667,86.083,34.4,0.25121,57.34,83.148,33.039,0.25832,57.503,33.72,84.619,0.25474,tetragonal,0,5.860978677,H4
mp-7752,Sr3SbN,Sr3SbN,47,90.542,38.4,0.17893,47,90.402,38.325,0.17942,47,38.362,90.472,0.17918,cubic,0.2577,4.664479978,H5
mp-755144,NaLiO,NaLiO,56.667,89.126,36,0.23786,49.789,84.908,34.919,0.21578,53.228,35.46,87.049,0.22744,hexagonal,2.879,2.326659197,H1b
mp-18943,BaNiO2,BaNiO2,78.333,87.731,33.4,0.31334,76.825,54.57,19.749,0.38161,77.579,26.574,71.553,0.34628,orthorhombic,2.3488,5.83541392,H2
mp-20055,NpSb,NpSb,68.333,31.859,11.2,0.42229,66.487,117.53,48.751,0.20539,67.41,29.975,78.318,0.30637,tetragonal,0,11.65414246,H4
mp-4142,MnSbPd,MnSbPd,101.33,4.1807,1.4,0.49312,101.33,100.15,37.5,0.33529,101.33,19.45,54.841,0.4098,cubic,0,8.06923816,H1a
mp-1029580,Sr4ZrN4,Sr4ZrN4,72.222,84.404,32.333,0.30522,68.247,68.242,25.59,0.33335,70.234,28.962,76.386,0.31874,triclinic,0.9426,4.545152836,H5
mp-1912,ZnAg,ZnAg,91,92.596,34.8,0.33041,91,28.996,10.02,0.44689,91,22.41,62.13,0.38621,cubic,0,8.853682792,H1a
mp-867277,Ho2MgAl,Ho2MgAl,52,100.39,42.6,0.17825,52,73.796,29.204,0.26347,52,35.902,87.555,0.21937,cubic,0,6.448323068,H1a
mp-6870,KBe2BO3F2,KBe2BO3F2,67.222,112.24,45.933,0.22173,35.263,63.627,26.527,0.19927,51.242,36.23,87.961,0.21391,trigonal,6.1,2.292830845,H2
mp-980014,TmTh3,TmTh3,50.667,92.73,38.8,0.19497,50.667,83.693,34.169,0.22469,50.667,36.485,88.267,0.20965,cubic,0,11.23923928,H1a
mp-755323,DyClO,DyClO,74.889,95.599,37.133,0.28724,54,64.414,24.752,0.30119,64.444,30.943,80.021,0.29305,tetragonal,5.1673,6.911877712,H4
mp-867186,CeZn2Ag,CeZn2Ag,73.667,74.554,28,0.33133,73.667,73.348,27.491,0.33405,73.667,27.745,73.952,0.33269,cubic,0,7.787014067,H1a
mp-862788,Er2ZnIn,Er2ZnIn,63.333,91.22,36.2,0.25995,63.333,69.655,26.451,0.3167,63.333,31.325,80.675,0.2877,cubic,0,8.83025338,H1a
mp-1674,PrSe,PrSe,72,97.811,38.4,0.27358,72,50.203,18.14,0.38379,72,28.27,74.994,0.3264,cubic,0,6.645286832,H1a
mp-978498,Sc3Al,Sc3Al,52,90.112,37.2,0.21118,52,84.674,34.459,0.22861,52,35.83,87.412,0.21983,cubic,0,3.091581742,H1a
mp-286,YbSe,YbSe,51.667,90.779,37.6,0.20717,51.667,84.335,34.34,0.22795,51.667,35.97,87.584,0.21747,cubic,2.0325,8.084642334,H2
mp-676011,Si,Si,68.222,94.292,37.133,0.26964,64.58,62.121,23.185,0.33968,66.401,30.159,78.581,0.30276,triclinic,0,2.344581212,H4
mp-561428,NiF3,NiF3,47.778,107.99,48.067,0.1233,38.988,75.192,31.9,0.17857,43.383,39.983,91.76,0.14748,trigonal,0,4.139246693,H2
mp-564,TePd,TePd,98.444,59.514,21.267,0.39924,98.165,53.715,19.064,0.4088,98.305,20.165,56.624,0.404,hexagonal,0,8.797556863,H4
mp-22375,In2S3,In2S3,84.778,67.458,24.667,0.36738,84.713,64.902,23.647,0.37231,84.745,24.157,66.182,0.36984,trigonal,0.5206,4.712893272,H2
mp-16723,Y3Al2,Y3Al2,58.556,84.475,33.533,0.25956,58.422,82.536,32.635,0.26454,58.489,33.084,83.507,0.26204,tetragonal,0,4.092629749,H4
mp-21109,LaAl4,LaAl4,72.667,79.576,30.2,0.31749,67.758,72.387,27.379,0.32195,70.212,28.789,75.983,0.31963,tetragonal,0,3.84409037,H4
mp-10952,Cu2HgGeS4,Cu2HgGeS4,68.222,84.66,32.733,0.29318,67.42,70.259,26.486,0.32632,67.821,29.61,77.545,0.30944,tetragonal,0.0205,5.354201903,H1a
mp-15821,LiNdGe,LiNdGe,45.778,93.052,40.067,0.16122,44.932,88.368,37.693,0.17222,45.355,38.88,90.717,0.16664,hexagonal,0,5.49879751,H4
mp-11584,Lu8Te,Lu8Te,53.778,86.417,35.067,0.23218,53.777,85.946,34.835,0.23363,53.777,34.951,86.182,0.23291,hexagonal,0,9.71712311,H4
mp-1334,Y2C,Y2C,62.889,95.165,38.133,0.2478,59.538,67.604,25.788,0.31075,61.214,31.961,81.669,0.27764,trigonal,0,4.535817916,H2
mp-569871,Tm6CoBi2,Tm6CoBi2,61.667,83.581,32.8,0.2741,61.62,79.16,30.78,0.28589,61.643,31.79,81.381,0.27997,hexagonal,0,10.30594796,H4
mp-15641,CaMgGe,CaMgGe,47,90.542,38.4,0.17893,46.702,89.192,37.739,0.1817,46.851,38.07,89.868,0.18031,orthorhombic,0,3.215540801,H4
mp-1406,MnTe,MnTe,81,68.497,25.2,0.35906,81,68.491,25.198,0.35907,81,25.199,68.494,0.35907,cubic,0,6.311653854,H1a
mp-19138,BaNiO3,BaNiO3,85.667,101.13,38.8,0.30325,84.62,26.166,9.0325,0.44846,85.143,23.916,65.606,0.37158,hexagonal,1.5421,5.929744903,H1a
mp-19365,Ba3V2O8,Ba3V2O8,70.333,78.336,29.8,0.31437,67.863,74.628,28.339,0.31672,69.098,29.069,76.483,0.31552,trigonal,3.7997,4.911718369,H2
mp-4541,NaCuO2,NaCuO2,74.667,101.39,39.8,0.27369,51.469,59.151,22.603,0.30846,63.068,31.202,80.354,0.28765,monoclinic,0.6434,4.071101932,H4
mp-867921,Sm2ZnRu,Sm2ZnRu,81.667,68.056,25,0.36111,81.667,67.91,24.941,0.36141,81.667,24.971,67.983,0.36126,cubic,0,8.651335855,H1a
mp-982772,Pm2PtAu,Pm2PtAu,89.667,62.545,22.6,0.38374,89.667,62.202,22.466,0.38438,89.667,22.533,62.374,0.38406,cubic,0,11.75346109,H1a
mp-5866,MnCuSb,MnCuSb,69,79.977,30.6,0.30682,69,72.934,27.546,0.32383,69,29.073,76.478,0.31527,cubic,0,7.082846139,H1a
mp-1025278,V2CrTe4,V2CrTe4,58.444,87.25,34.867,0.25119,57.379,79.686,31.409,0.26854,57.912,33.138,83.489,0.25972,monoclinic,0,6.477785783,H4
mp-29731,HoClO,HoClO,80.778,98.248,37.867,0.29729,48.03,60.615,23.501,0.28966,64.404,30.684,79.436,0.29443,tetragonal,5.1843,7.073997853,H4
mp-23050,GdClO,GdClO,69.667,91.256,35.6,0.28168,55.781,69.664,26.963,0.29185,62.724,31.281,80.467,0.28619,tetragonal,2.978,6.51783243,H4
mp-21321,MnSe2,MnSe2,76.667,74.884,28,0.33721,76.667,67.647,25,0.35294,76.667,26.5,71.287,0.34503,cubic,0,6.034268652,H1a
mp-11091,NdMgPt,NdMgPt,79.333,71.292,26.4,0.35023,78.87,67.888,25.022,0.35654,79.102,25.711,69.593,0.35337,hexagonal,0,8.790775393,H4
mp-2281,SmSb,SmSb,56.667,92.37,37.6,0.22832,56.667,75.543,29.559,0.27781,56.667,33.58,84.123,0.25258,cubic,0,7.14089816,H1a
mp-16645,SmMgPt,SmMgPt,83.333,68.182,25,0.36364,83.029,65.256,23.833,0.36901,83.181,24.417,66.721,0.36631,hexagonal,0,9.159893853,H4
mp-30816,Li2AlPd,Li2AlPd,68.333,90.998,35.6,0.27805,68.333,61.674,22.849,0.34958,68.333,29.225,76.735,0.31284,cubic,0,4.294102878,H1a
mp-4779,Li2B4O7,Li2B4O7,44.889,104.74,47.133,0.11111,35.982,80.198,35.532,0.12853,40.436,41.333,92.486,0.11879,tetragonal,5.668,2.262845135,H4
mp-25587,LiNiO2,LiNiO2,107.67,133.48,51.6,0.29338,40.213,8.7507,2.9892,0.46373,73.94,27.295,72.912,0.33565,monoclinic,0,4.304349459,H4
mp-541289,Y2S3,Y2S3,65.889,79.794,30.733,0.29816,65.302,76.786,29.442,0.30402,65.596,30.088,78.292,0.30107,monoclinic,1.5992,3.775544157,H4
mp-5305,CuAsS,CuAsS,67.444,82.144,31.667,0.29701,67.157,72.02,27.254,0.32127,67.301,29.46,77.127,0.309,orthorhombic,0,4.751486543,H4
mp-5566,KCuF3,KCuF3,66.667,77.807,29.8,0.30548,66.667,77.231,29.547,0.30692,66.667,29.674,77.519,0.3062,cubic,0,3.936041074,H1a
mp-979923,SmMn3,SmMn3,71,81.641,31.2,0.30835,66.754,70.473,26.613,0.32405,68.877,28.906,76.076,0.31591,hexagonal,0,7.197998691,H4
mp-2491,ErSe,ErSe,82.333,98.8,38,0.3,82.333,31.747,11.056,0.43573,82.333,24.528,66.937,0.3645,cubic,0,8.78994434,H1a
mp-861600,Ho2ZnIn,Ho2ZnIn,61,90.247,36,0.25342,61,71.511,27.407,0.30462,61,31.703,81.066,0.27851,cubic,0,8.627981481,H1a
mp-1561,TbSe,TbSe,77,98.78,38.4,0.28619,77,39.555,13.983,0.41438,77,26.192,70.573,0.34725,cubic,0,8.122901397,H1a
mp-12961,YAlPd,YAlPd,94.222,87.526,32.533,0.34518,91.5,29.496,10.197,0.44627,92.861,21.365,59.53,0.39316,hexagonal,0,6.101195592,H4
mp-866184,Ti3Pb,Ti3Pb,106.89,2.195,0.73333,0.49658,106.55,92.464,34.11,0.35537,106.72,17.422,49.568,0.42259,hexagonal,0,7.79741201,H4
mp-1039141,MgAl,MgAl,58.556,83.202,32.933,0.26318,57.556,82.465,32.693,0.26121,58.056,32.813,82.833,0.2622,tetragonal,0,2.213918845,H4
mp-977140,NaTa3,NaTa3,124,39.919,13.8,0.44635,124,33.936,11.667,0.45439,124,12.733,36.936,0.45036,cubic,0,12.56479037,H1a
mp-21859,CuAs2,CuAs2,87.333,71.455,26.2,0.36364,86.52,55.602,19.959,0.39289,86.926,23.08,63.609,0.37804,orthorhombic,0,6.474916066,H4
mp-864922,MgZnAu2,MgZnAu2,98.667,82.706,30.4,0.36029,98.667,25.889,8.8889,0.45627,98.667,19.644,55.266,0.40665,cubic,0,11.74197394,H1a
mp-1264,CdAu3,CdAu3,117,51.366,18,0.42683,117,32.4,11.143,0.45385,117,14.571,41.972,0.44021,cubic,0,15.58540193,H1a
mp-2696,MgAg,MgAg,65,88.59,34.8,0.27285,65,67.728,25.532,0.32634,65,30.166,78.374,0.29904,cubic,0,5.915481978,H1a
mp-567912,SmHgPd,SmHgPd,78.333,71.201,26.4,0.34851,76.983,68.694,25.418,0.35128,77.658,25.909,69.948,0.34988,hexagonal,0,11.06798151,H4
mp-989568,Cs2NaMgF6,Cs2NaMgF6,105,51.081,18,0.41892,105,50.233,17.684,0.42027,105,17.842,50.657,0.41959,cubic,0,4.062205253,H1a
mp-2068,RhF3,RhF3,62,106.75,44,0.21304,45.867,63.11,24.833,0.27067,53.933,34.417,85.14,0.2369,trigonal,0.8925,5.294263042,H2
mp-2743,LiPd,LiPd,73,80.546,30.6,0.31611,73,65.406,24.213,0.35067,73,27.406,73.074,0.33316,cubic,0,6.954610793,H1a
mp-867127,ScCdAg2,ScCdAg2,79.333,90.167,34.4,0.31057,79.333,45.634,16.25,0.40413,79.333,25.325,68.668,0.35574,cubic,0,7.911029804,H1a
mp-4182,CrAgS2,CrAgS2,78.556,75.878,28.333,0.33902,74.966,64.902,23.937,0.35571,76.761,26.135,70.414,0.34712,trigonal,0.7568,5.029493242,H2
mp-23039,Er6MnBi2,Er6MnBi2,56.444,85.498,34.267,0.24754,55.671,81.905,32.637,0.25479,56.058,33.452,83.705,0.25113,hexagonal,0,9.790605765,H4
mp-3031,BaSi2O5,BaSi2O5,56.889,85.333,34.133,0.25,55.814,81.701,32.523,0.25603,56.351,33.328,83.52,0.25298,orthorhombic,4.7917,3.608075862,H2
mp-1638,SrAl2,SrAl2,48.333,88.053,36.8,0.19637,48.333,88.05,36.798,0.19638,48.333,36.799,88.051,0.19638,cubic,0,3.302372766,H1a
mp-865150,MgCdAu2,MgCdAu2,87,77.814,28.8,0.35093,87,47.953,17.027,0.40814,87,22.914,63.193,0.37894,cubic,0,11.65013343,H1a
mp-1018940,PrSe2,PrSe2,70.222,78.167,29.733,0.31448,70.06,71.044,26.689,0.33099,70.141,28.211,74.628,0.32267,tetragonal,0,6.530427478,H4
mp-754008,BaCuO2,BaCuO2,80.556,80.378,30.133,0.3337,77.635,56.363,20.436,0.379,79.095,25.285,68.55,0.35555,orthorhombic,0,5.786553946,H4
mp-124,Ag,Ag,88,76.435,28.2,0.35524,88,47.72,16.927,0.40962,88,22.563,62.36,0.38189,cubic,0,9.948346655,H1a
mp-867353,ThCdAu2,ThCdAu2,97.333,56.154,20,0.40385,97.333,55.323,19.684,0.40527,97.333,19.842,55.739,0.40456,cubic,0,13.34447374,H1a
mp-227,SmCu5,SmCu5,80.333,78.61,29.4,0.33691,61.984,69.068,26.276,0.31428,71.159,27.838,73.88,0.32696,hexagonal,0,8.498335586,H4
mp-14099,ZnAgF3,ZnAgF3,80.667,69.453,25.6,0.3565,80.667,65.364,23.944,0.36495,80.667,24.772,67.415,0.36071,cubic,1.6926,5.65877599,H5
mp-12098,K(PRh)2,K(PRh)2,56.778,100.04,41.467,0.20633,44.754,72.89,29.665,0.22855,50.766,35.566,86.498,0.21602,tetragonal,0,4.94713301,H4
mp-22493,YInAu2,YInAu2,89.667,68.622,25,0.37245,89.667,53.431,19.073,0.40069,89.667,22.037,61.104,0.38642,cubic,0,11.43946252,H1a
mp-973556,LuTh3,LuTh3,49.667,91.215,38.2,0.19391,49.667,82.798,33.874,0.22215,49.667,36.037,87.056,0.20787,cubic,0,11.31526888,H1a
mp-134,Al,Al,83.333,69.172,25.4,0.36166,83.333,61.784,22.443,0.37643,83.333,23.922,65.498,0.369,cubic,0,2.720049585,H1a
mp-2215,ThHg2,ThHg2,58.889,82.422,32.533,0.26673,58.48,81.165,31.988,0.26868,58.684,32.261,81.794,0.2677,hexagonal,0,13.28134233,H4
mp-554601,RbCuF3,RbCuF3,64.667,80.187,31,0.29333,64.667,75.848,29.071,0.30451,64.667,30.036,78.027,0.2989,cubic,0,4.816799658,H1a
mp-504731,EuF2,EuF2,66.333,77.302,29.6,0.30577,66.333,76.555,29.272,0.30765,66.333,29.436,76.929,0.30671,cubic,0,6.208351324,H1a
mp-20128,Eu(MnAs)2,Eu(MnAs)2,53.778,92.005,37.867,0.21486,52.71,77.724,30.985,0.25424,53.244,34.426,84.965,0.23404,trigonal,0,6.873592376,H2
mp-1911,CeSn3,CeSn3,59.667,83.161,32.8,0.26771,59.667,78.963,30.859,0.27943,59.667,31.829,81.072,0.27354,cubic,0,7.835168735,H1a
mp-21509,LaMgGa,LaMgGa,51.556,88.265,36.333,0.21466,51.519,83.486,33.939,0.22992,51.538,35.136,85.89,0.22224,hexagonal,0,5.012264025,H4
mp-862663,LaPbAu2,LaPbAu2,94.667,65.879,23.8,0.38402,94.667,48.62,17.188,0.4144,94.667,20.494,57.343,0.39904,cubic,0,12.29959931,H1a
mp-12574,Dy2C,Dy2C,64.222,91.706,36.333,0.26201,62.033,65.434,24.707,0.32419,63.127,30.52,78.853,0.29181,trigonal,0,8.134774582,H2
mp-16370,Th2Ge,Th2Ge,77.444,73.688,27.467,0.34142,77.378,65.038,23.913,0.35991,77.411,25.69,69.393,0.3506,tetragonal,0,10.64976226,H4
mp-30461,BiPd2Pb,BiPd2Pb,84.444,66.935,24.467,0.36789,83.973,62.449,22.691,0.37605,84.209,23.579,64.698,0.37195,monoclinic,0,11.975833,H4
mp-755894,Li2O,Li2O,63.333,102.79,41.8,0.22951,60.669,54.197,20.056,0.35111,62.001,30.928,79.556,0.28614,orthorhombic,5.2422,2.06756134,H2
mp-15988,Li2CuSb,Li2CuSb,53.333,97.91,41,0.19403,53.333,70.753,27.662,0.2789,53.333,34.331,84.798,0.23501,cubic,0.5275,5.207161259,H5
mp-1025500,ZnCu2SnS4,ZnCu2SnS4,67.111,81.64,31.467,0.29725,67.109,70.75,26.712,0.32429,67.11,29.089,76.251,0.31063,tetragonal,0,4.484576854,H4
mp-11301,HoCd2,HoCd2,58.667,85.064,33.8,0.25834,54.694,80.478,32.069,0.25476,56.68,32.935,82.772,0.25661,hexagonal,0,8.80109766,H4
mp-4861,Sr(CuAs)2,Sr(CuAs)2,66.889,83.539,32.333,0.29185,66.447,69.202,26.086,0.32642,66.668,29.21,76.462,0.30885,tetragonal,0,6.268381988,H4
mp-7655,BaSi2,BaSi2,49.444,94.637,40.067,0.181,47.681,79.884,32.719,0.22077,48.563,36.393,87.356,0.20019,trigonal,0,4.130026053,H2
mp-20001,SrSnPt,SrSnPt,70,76.906,29.2,0.31689,69.405,71.937,27.1,0.32725,69.702,28.15,74.43,0.32203,orthorhombic,0,8.910977463,H4
mp-861499,Pr2CuIr,Pr2CuIr,81.333,67.536,24.8,0.36161,81.333,65.524,23.989,0.36573,81.333,24.394,66.532,0.36366,cubic,0,9.607150418,H1a
mp-779328,NaCu2O3,NaCu2O3,99,98.229,36.8,0.33463,76.718,23.281,8.0313,0.44942,87.859,22.416,61.976,0.38243,monoclinic,0,5.361459408,H4
mp-8277,Sr(CdP)2,Sr(CdP)2,53.889,84.957,34.333,0.23724,53.356,83.901,33.888,0.23792,53.623,34.111,84.429,0.23758,trigonal,0.7105,5.083181409,H2