Material_ID,Formula,pretty_formula,KV ,EV ,GV ,PV ,KR ,ER ,GR ,PR ,bulk,shear,young,poisson,csyst,gap,density,y_cla
mp-7959,KErO2,KErO2,92.222,141.24,56.733,0.24475,89.369,124.74,49.211,0.26737,90.795,52.972,133.04,0.25578,trigonal,3.9633,6.15621711,H2
mp-11038,Zr6Al2Fe,Zr6Al2Fe,104.67,124.45,47.8,0.30182,104.61,124.33,47.749,0.30191,104.64,47.774,124.39,0.30187,hexagonal,0,5.979508708,H4
mp-754344,LiZnO2,LiZnO2,106,129.17,49.8,0.2969,102.31,120.11,46.042,0.30434,104.16,47.921,124.65,0.30055,trigonal,0,4.590914685,H2
mp-997030,CaAgO2,CaAgO2,116.67,118.68,44.6,0.33046,116.34,114.35,42.792,0.33618,116.5,43.696,116.52,0.33331,tetragonal,0,5.521663205,H4
mp-862844,PaAl3,PaAl3,100.22,136.33,53.533,0.27329,99.784,118.06,45.308,0.30282,100,49.421,127.29,0.28785,hexagonal,0,6.592345548,H4
mp-1808,Ti2Ni,Ti2Ni,141.67,99.056,35.8,0.38346,141.67,98.899,35.739,0.38365,141.67,35.769,98.978,0.38356,cubic,0,5.725014052,H1a
mp-865517,YZnRh2,YZnRh2,126,111.94,41.4,0.35193,126,107.74,39.685,0.35748,126,40.543,109.85,0.3547,cubic,0,8.757737105,H1a
mp-1009894,ZrC,ZrC,134.67,115.12,42.4,0.35753,134.67,92.269,33.291,0.38581,134.67,37.845,103.81,0.37152,cubic,0.5469,5.150549586,H5
mp-30536,V5Sb4,V5Sb4,89.778,142.49,57.667,0.23547,89.254,124.04,48.897,0.26838,89.516,53.282,133.38,0.25166,tetragonal,0,7.310103926,H4
mp-21363,TbFeSi,TbFeSi,90.333,143.33,58,0.23556,85.753,125.04,49.736,0.25699,88.043,53.868,134.23,0.2459,tetragonal,0,7.506788416,H4
mp-16329,ErSbPt,ErSbPt,102,125.82,48.6,0.29442,102,125.41,48.418,0.29508,102,48.509,125.61,0.29475,cubic,0.287,11.27931942,H5
mp-764163,Li3FeO4,Li3FeO4,94.333,135.19,53.6,0.26114,92.251,126.89,49.926,0.27076,93.292,51.763,131.05,0.26588,orthorhombic,0,3.334652401,H4
mp-979074,TmO3,TmO3,163,87.986,31.2,0.41003,163,79.067,27.857,0.41915,163,29.529,83.541,0.41458,cubic,0,8.571467455,H1a
mp-30817,LiAl2Pd,LiAl2Pd,104.33,155.25,62,0.252,104.33,90.236,33.277,0.35585,104.33,47.638,124.04,0.30186,cubic,0,4.875656255,H1a
mp-11615,TmMnGe,TmMnGe,77.556,145.61,61.333,0.18707,74.03,136.21,57.072,0.19334,75.793,59.203,140.92,0.19013,hexagonal,0,8.988417299,H4
mp-20207,MnAsRh,MnAsRh,136,106.29,38.8,0.36974,135.95,98.881,35.858,0.37878,135.97,37.329,102.6,0.37424,hexagonal,0,9.029737697,H4
mp-15695,YAsPt,YAsPt,117.56,122.86,46.333,0.32581,103.4,116.96,44.592,0.31148,110.48,45.463,119.94,0.31907,hexagonal,0,9.661205846,H4
mp-3579,UGeSe,UGeSe,83.444,143.37,59.067,0.21364,78.59,132.67,54.433,0.21865,81.017,56.75,138.02,0.21606,tetragonal,0,9.975288365,H4
mp-607475,Zr4In5Co2,Zr4In5Co2,89.667,134.92,54,0.24923,89.094,131.45,52.408,0.2541,89.38,53.204,133.19,0.25165,monoclinic,0,7.750873172,H4
mp-2729,Sn7Os3,Sn7Os3,120.33,117.66,44,0.33704,120.33,108.84,40.333,0.34925,120.33,42.167,113.27,0.34312,cubic,0,10.83472762,H1a
mp-11521,ScNi,ScNi,110.67,119.82,45.4,0.31955,110.67,119.62,45.314,0.31986,110.67,45.357,119.72,0.31971,cubic,0,5.419871562,H1a
mp-11169,Ba(PIr)2,Ba(PIr)2,106.56,144.98,56.933,0.27323,91.382,109.39,42.056,0.30049,98.969,49.495,127.27,0.28568,tetragonal,0,9.515319227,H4
mp-568631,Lu3Mn3Ga2Si,Lu3Mn3Ga2Si,85.889,142.7,58.333,0.2231,85.884,127.51,50.901,0.25255,85.887,54.617,135.19,0.23765,hexagonal,0,8.821649617,H4
mp-16314,TmSbPt,TmSbPt,100.67,126.48,49,0.2906,100.67,125.85,48.716,0.29164,100.67,48.858,126.16,0.29112,cubic,0.2443,11.41446054,H5
mp-996964,CdAgO2,CdAgO2,141,102.07,37,0.37935,138.85,97.264,35.158,0.38325,139.92,36.079,99.67,0.38128,orthorhombic,0,7.70151218,H4
mp-5015,UAlRh,UAlRh,119.11,118.64,44.467,0.334,116.48,111.1,41.423,0.34103,117.79,42.945,114.87,0.33746,hexagonal,0,10.88185979,H4
mp-867133,Ba2Sc2O5,Ba2Sc2O5,107.78,137.64,53.467,0.28715,104.58,107.03,40.254,0.32943,106.18,46.86,122.55,0.30763,tetragonal,1.5402,5.070078886,H1a
mp-715262,FeO,FeO,137.11,124.28,46.067,0.34893,103.91,101.71,38.042,0.33686,120.51,42.055,113.02,0.3437,tetragonal,0,5.577375605,H4
mp-1019541,BaCa3O4,BaCa3O4,83,136.75,55.8,0.22539,83,136.75,55.799,0.2254,83,55.799,136.75,0.2254,cubic,2.3351,4.005842001,H2
mp-3679,NiSbS,NiSbS,95.667,130.78,51.4,0.27216,95.667,127.55,49.909,0.27779,95.667,50.655,129.17,0.27497,cubic,0,6.75561974,H1a
mp-982779,NbTe,NbTe,108.78,137.82,53.467,0.28884,105.96,105.07,39.359,0.33473,107.37,46.413,121.7,0.31108,hexagonal,0,8.346733405,H4
mp-28995,Cu4SiP8,Cu4SiP8,90.444,136.91,54.867,0.2477,88.615,128.86,51.229,0.25765,89.53,53.048,132.9,0.2526,tetragonal,1.3714,4.118551939,H1a
mp-674,LaPd3,LaPd3,122,113.03,42,0.34559,122,110.73,41.051,0.34873,122,41.525,111.88,0.34716,cubic,0,10.00333825,H1a
mp-1025105,LuAlGe,LuAlGe,87,139.13,56.4,0.23346,86.291,129.68,51.892,0.24953,86.646,54.146,134.43,0.24141,orthorhombic,0,7.780347015,H4
mp-600124,MnNiSb,MnNiSb,109.33,121.95,46.4,0.3141,109.33,118.44,44.884,0.31945,109.33,45.642,120.2,0.31677,cubic,0,7.589432245,H1a
mp-565,Sn2Rh,Sn2Rh,108.33,124.1,47.4,0.30908,108.23,117.49,44.533,0.31908,108.28,45.967,120.81,0.31406,tetragonal,0,9.246736921,H4
mp-861936,LiPd3,LiPd3,122.67,121.24,45.4,0.33527,122.67,100.88,37.008,0.36294,122.67,41.204,111.16,0.34896,cubic,0,9.120448091,H1a
mp-19904,ZrNi2Sb,ZrNi2Sb,137.67,106.4,38.8,0.37118,137.67,94.675,34.169,0.38538,137.67,36.485,100.57,0.37825,cubic,0,8.686214128,H1a
mp-16494,AlCrCu2,AlCrCu2,116,167.7,66.6,0.25904,116,56.569,19.937,0.41872,116,43.268,115.45,0.33412,cubic,0,6.546075704,H1a
mp-12742,MgPd3,MgPd3,130.22,127.13,47.533,0.33729,129.59,83.902,30.135,0.39209,129.91,38.834,105.95,0.36407,tetragonal,0,9.074298707,H4
mp-8375,Th(SiTc)2,Th(SiTc)2,143.22,105.07,38.133,0.37773,143.22,88.04,31.498,0.39755,143.22,34.816,96.618,0.38757,tetragonal,0,8.965217875,H4
mp-862656,ErAl3,ErAl3,75.444,142.03,59.867,0.18623,74.61,138.94,58.397,0.18963,75.027,59.132,140.49,0.18792,trigonal,0,5.40822724,H2
mp-654812,CdCO3,CdCO3,103.22,23.776,8.1333,0.46161,102.37,204.11,87.399,0.16769,102.8,47.766,124.08,0.29882,trigonal,0,4.40977214,H2
mp-11239,ZrAg,ZrAg,106.11,132.02,51.067,0.29264,106.11,111.56,42.103,0.32477,106.11,46.585,121.91,0.30851,tetragonal,0,8.085385116,H4
mp-1986,ZnO,ZnO,126.67,124.53,46.6,0.33615,126.67,91.144,33.021,0.38007,126.67,39.811,108.11,0.35775,cubic,0.6311,5.44638262,H5
mp-1025263,Ti2NiS4,Ti2NiS4,85.556,141.79,57.933,0.22378,80.613,130.3,52.942,0.23061,83.084,55.438,136.05,0.22708,monoclinic,0,4.152401954,H4
mp-1017509,MgNiH2,MgNiH2,92.222,143.71,57.933,0.24029,78.601,125.64,50.924,0.23359,85.411,54.429,134.68,0.2372,tetragonal,0,4.15735962,H4
mp-978303,Mg3Re,Mg3Re,114.67,128.67,49,0.31298,114.67,103.38,38.296,0.34974,114.67,43.648,116.2,0.3311,cubic,0,5.999649887,H1a
mp-13962,HfSiSe,HfSiSe,106.67,185.81,76.8,0.20968,57.946,86.719,34.672,0.25057,82.306,55.736,136.42,0.22376,tetragonal,0,8.568019226,H4
mp-975905,Mo3I,Mo3I,168.33,83.883,29.6,0.41695,168.33,73.044,25.581,0.42768,168.33,27.591,78.484,0.42229,cubic,0,9.892009242,H1a
mp-505019,USb2Ru,USb2Ru,90.333,138.82,55.8,0.24388,88.633,125.38,49.587,0.26423,89.483,52.693,132.14,0.25388,tetragonal,0,10.97171379,H4
mp-762268,Li3V2O6,Li3V2O6,90.889,145.78,59.133,0.23267,82.802,121.51,48.393,0.25543,86.845,53.763,133.7,0.24341,triclinic,1.2497,3.393073233,H5
mp-864997,LiSiPd2,LiSiPd2,138.33,128.11,47.6,0.34565,138.33,69.995,24.721,0.41567,138.33,36.161,99.787,0.37977,cubic,0,7.781614947,H1a
mp-14476,LiRhO2,LiRhO2,120.67,122.44,46,0.33088,120.67,101.28,37.234,0.36011,120.67,41.617,111.98,0.34534,cubic,1.387,5.905075044,H5
mp-981103,Sr3CdO4,Sr3CdO4,76.333,139.6,58.4,0.1952,76.333,139.5,58.35,0.19541,76.333,58.375,139.55,0.1953,cubic,0.5407,5.467428411,H5
mp-867258,LiZnPd2,LiZnPd2,108.33,127.29,48.8,0.30417,108.33,113.01,42.607,0.32615,108.33,45.703,120.21,0.31507,cubic,0,8.491450863,H1a
mp-10892,MnAlPt,MnAlPt,129.56,126.11,47.133,0.33777,116.19,94.577,34.66,0.36434,122.87,40.897,110.44,0.3502,hexagonal,0,10.32280605,H4
mp-862697,Er2MgGe2,Er2MgGe2,80,142.46,59.2,0.20321,79.68,132.7,54.276,0.22243,79.84,56.738,137.62,0.21273,tetragonal,0,7.615502027,H4
mp-1018154,Hf2Hg,Hf2Hg,101.22,146.8,58.333,0.25829,97.868,103.79,39.219,0.32324,99.545,48.776,125.78,0.2894,tetragonal,0,14.04619704,H4
mp-29900,NiGe2,NiGe2,109.44,126.24,48.267,0.30775,108.82,112.77,42.48,0.32729,109.13,45.374,119.55,0.31742,orthorhombic,0,7.375736763,H4
mp-862704,ScZn2Pt,ScZn2Pt,125,156.51,60.6,0.29132,125,56.151,19.7,0.42513,125,40.15,108.8,0.35493,cubic,0,9.779803773,H1a
mp-13203,ScCuSn,ScCuSn,85.778,136.08,55.067,0.2356,82.844,133.55,54.229,0.23133,84.311,54.648,134.82,0.23349,hexagonal,0,6.499897103,H4
mp-754150,La3GaO6,La3GaO6,114,119.77,45.2,0.3249,112.31,113.58,42.654,0.33144,113.15,43.927,116.68,0.32814,orthorhombic,3.8351,6.024137619,H2
mp-7463,Cu3P,Cu3P,123.56,111.07,41.133,0.35017,123.36,108.29,39.999,0.35369,123.46,40.566,109.69,0.35193,hexagonal,0,7.336043592,H4
mp-9888,Ir3Se8,Ir3Se8,83.667,140.15,57.4,0.22082,83.634,130,52.378,0.24094,83.65,54.889,135.11,0.23079,trigonal,0,9.011455739,H2
mp-2056,Ni3Se2,Ni3Se2,106,123.3,47.2,0.30613,105.22,119.78,45.709,0.31027,105.61,46.455,121.54,0.30819,trigonal,0,7.305191525,H2
mp-999294,Pd3N,Pd3N,120.33,120.51,45.2,0.33309,120.33,102.69,37.814,0.35777,120.33,41.507,111.68,0.34532,cubic,0,8.10722776,H1a
mp-12072,UAu2,UAu2,111.67,120.87,45.8,0.31959,106.62,117.44,44.604,0.31643,109.15,45.202,119.16,0.31805,hexagonal,0,16.88174793,H4
mp-753774,KTmO2,KTmO2,88.111,142.02,57.667,0.23137,84.765,124.52,49.605,0.25516,86.438,53.636,133.33,0.24292,trigonal,3.9715,6.293796031,H2
mp-1018712,HfGa4Co,HfGa4Co,80.444,146.97,61.467,0.19551,78.392,127.41,51.831,0.22911,79.418,56.649,137.3,0.21186,tetragonal,0,7.975992533,H4
mp-21017,Y3PbC,Y3PbC,76.333,139.6,58.4,0.1952,76.333,138.23,57.684,0.19818,76.333,58.042,138.92,0.19669,cubic,0,6.774896015,H1a
mp-20432,Fe2Ge,Fe2Ge,137.78,124.34,46.067,0.34959,137.78,73.211,25.935,0.41144,137.78,36.001,99.349,0.37982,hexagonal,0,8.262507136,H4
mp-559051,BaBiO3,BaBiO3,106.44,122.61,46.867,0.30803,105.9,118.94,45.301,0.3128,106.17,46.084,120.78,0.31041,monoclinic,0.0769,7.582693084,H4
mp-3804,Sr(PRu)2,Sr(PRu)2,90,155.21,64,0.21257,67.795,119.46,49.516,0.20631,78.898,56.758,137.34,0.20988,tetragonal,0,6.262845368,H4
mp-10212,ScGe2,ScGe2,82.222,140.35,57.733,0.21551,79.203,132.07,54.036,0.22208,80.713,55.885,136.22,0.21872,orthorhombic,0,5.643091749,H4
mp-989513,SrWN3,SrWN3,107.67,131.69,50.8,0.29615,96.124,115.06,44.236,0.3005,101.9,47.518,123.38,0.2982,monoclinic,1.3647,6.655519399,H4
mp-30459,ScNiBi,ScNiBi,88.667,131.75,52.6,0.25235,88.667,131.35,52.412,0.25309,88.667,52.506,131.55,0.25272,cubic,0.2344,8.481495669,H5
mp-7104,CsCaF3,CsCaF3,116.67,113.46,42.4,0.33792,116.67,113.29,42.332,0.33815,116.67,42.366,113.37,0.33804,cubic,7.2341,3.970085136,H2
mp-1050,Ni3S4,Ni3S4,115.33,114.27,42.8,0.33488,115.33,114.21,42.778,0.33495,115.33,42.789,114.24,0.33491,cubic,0,4.843488578,H1a
mvc-15350,Ca2Sn3O8,Ca2Sn3O8,109,127.39,48.8,0.30522,104.92,112.06,42.382,0.322,106.96,45.591,119.76,0.31339,monoclinic,2.44,5.01959496,H2
mp-862657,LiCuPd2,LiCuPd2,116,129.32,49.2,0.3142,116,97.578,35.879,0.3598,116,42.54,113.72,0.33661,cubic,0,8.640896282,H1a
mp-2291,Si2Ni,Si2Ni,150,130.12,48,0.35542,150,47.203,16.304,0.44755,150,32.152,90.024,0.39997,cubic,0,4.724646143,H1a
mp-1025134,HoCu4Pd,HoCu4Pd,126.33,106.58,39.2,0.3594,126.33,106.57,39.198,0.3594,126.33,39.199,106.57,0.3594,cubic,0,10.00192857,H1a
mp-567832,TiTe,TiTe,90.667,149.88,61.2,0.22449,83.698,113.45,44.52,0.2741,87.182,52.86,131.92,0.24781,hexagonal,0,6.838350612,H4
mp-11309,NbCd3,NbCd3,106.67,126.12,48.4,0.30293,106.67,113.12,42.743,0.32325,106.67,45.572,119.67,0.31301,cubic,0,8.860889791,H1a
mvc-15521,YAgO3,YAgO3,166.67,120.31,43.6,0.37969,166.65,32.682,11.137,0.46731,166.66,27.368,77.844,0.42215,cubic,0,6.098528684,H1a
mp-557680,NbAgO3,NbAgO3,134.33,153.02,58.4,0.31014,102.16,69.298,24.982,0.38694,118.25,41.691,111.92,0.34225,orthorhombic,0.9211,6.034482046,H2
mp-756,TbAl2,TbAl2,77,138.31,57.6,0.20062,77,136.81,56.821,0.20387,77,57.211,137.56,0.20225,cubic,0,5.7553389,H1a
mp-16993,Er2SiO5,Er2SiO5,128,152.52,58.6,0.3014,81.305,89.12,33.826,0.31731,104.65,46.213,120.85,0.30754,monoclinic,4.6505,7.276587111,H2
mp-8125,LuCuSi,LuCuSi,76.889,152.74,65.333,0.16892,61.44,130.08,56.696,0.14714,69.164,61.015,141.45,0.15915,hexagonal,0,8.395027936,H4
mp-5788,NaUO3,NaUO3,84,139.06,56.8,0.22409,83.632,128.15,51.48,0.24462,83.816,54.14,133.64,0.23425,orthorhombic,0.4297,7.080246514,H2
mp-755252,DyHO2,DyHO2,134.11,142.99,54.067,0.3223,133.74,55.399,19.357,0.43096,133.93,36.712,100.91,0.37442,hexagonal,4.1726,6.523231587,H1b
mp-850062,LiNiO2,LiNiO2,116.67,147.5,57.2,0.28929,112.25,78.723,28.459,0.38312,114.46,42.829,114.24,0.33366,triclinic,0,4.679102824,H4
mp-1502,Al2Pt,Al2Pt,128.67,105.77,38.8,0.36299,128.67,102.99,37.68,0.3666,128.67,38.24,104.38,0.36479,cubic,0,7.858008759,H1a
mp-1018690,ErZnGa,ErZnGa,75.556,143.7,60.733,0.18302,70.58,134.88,57.082,0.18149,73.068,58.908,139.29,0.18228,hexagonal,0,8.435227388,H4
mp-556,ZrNi,ZrNi,139,121.85,45,0.3539,137.92,72.168,25.541,0.41279,138.46,35.27,97.53,0.3826,orthorhombic,0,7.396409209,H4
mp-16376,HoSbPt,HoSbPt,101,122.96,47.4,0.29709,101,122.78,47.318,0.29739,101,47.359,122.87,0.29724,cubic,0.326,11.14920839,H5
mp-754,Te2Rh,Te2Rh,97.667,127.26,49.6,0.28284,97.667,122.71,47.542,0.29059,97.667,48.571,124.99,0.2867,cubic,0,8.495599624,H1a
mp-7473,LiCu2Si,LiCu2Si,104.33,153.99,61.4,0.25401,104.33,84.452,30.933,0.36509,104.33,46.166,120.7,0.30719,cubic,0,5.716669873,H1a
mp-16516,TbAl2Ni,TbAl2Ni,84.444,138.52,56.467,0.2266,81.952,128.86,52.047,0.23793,83.198,54.257,133.71,0.23215,orthorhombic,0,6.264764726,H4
mp-2264,ErGe,ErGe,82.667,143.77,59.4,0.21015,82.424,124.05,49.655,0.24915,82.545,54.528,134.06,0.22931,orthorhombic,0,8.957713259,H4
mp-22752,FeSn2,FeSn2,80.111,138.35,57.067,0.21217,79.554,132.78,54.335,0.22183,79.832,55.701,135.57,0.21697,tetragonal,0,8.36399548,H4
mp-542106,SbPd2,SbPd2,130.89,110.22,40.533,0.35965,123.29,100.44,36.812,0.36422,127.09,38.673,105.33,0.36186,orthorhombic,0,10.27148984,H4
mp-20950,Nd(SiPt)2,Nd(SiPt)2,138.89,143.26,53.933,0.32809,130.35,53.81,18.799,0.4312,134.62,36.366,100.09,0.37609,tetragonal,0,10.86544633,H4
mp-24192,ErH2,ErH2,87,139.13,56.4,0.23346,87,123.53,48.889,0.26336,87,52.644,131.42,0.24823,cubic,0,8.359993872,H1a
mp-865536,YbZrRh2,YbZrRh2,127.67,105.69,38.8,0.36202,127.67,103.91,38.079,0.36435,127.67,38.44,104.8,0.36318,cubic,0,10.772967,H1a
mp-17892,Ca2VN3,Ca2VN3,95.778,132.67,52.267,0.26914,92.539,121.19,47.277,0.28173,94.158,49.772,126.95,0.27529,monoclinic,1.6815,3.349349808,H4
mp-4763,ZnSiP2,ZnSiP2,84.556,137.48,55.933,0.22901,84.555,127.8,51.196,0.2481,84.555,53.565,132.68,0.23848,tetragonal,1.3641,3.333168041,H1a
mp-11798,Fe3Pt,Fe3Pt,128.11,133.83,50.467,0.3259,128.1,73.255,26.075,0.40469,128.11,38.271,104.41,0.36416,tetragonal,0,11.44344367,H4
mp-1101,TmAs,TmAs,80.333,141.03,58.4,0.20741,80.333,129.01,52.342,0.23235,80.333,55.371,135.08,0.21975,cubic,0,8.515822342,H1a
mp-1006880,BiB,BiB,72.333,142.48,60.8,0.17171,72.333,136.16,57.391,0.18626,72.333,59.096,139.34,0.17894,cubic,0.3557,8.574936007,H5
mp-862324,Sc2GaTc,Sc2GaTc,110.33,127.59,48.8,0.30727,110.33,104.97,39.128,0.34143,110.33,43.964,116.43,0.32413,cubic,0,6.011868428,H1a
mp-22786,ThNiSn,ThNiSn,97.667,133.78,52.6,0.2717,97.667,115.26,44.216,0.30332,97.667,48.408,124.63,0.28732,cubic,0.3533,9.532560037,H5
mp-16349,LiNi2Ge,LiNi2Ge,132.67,158.68,61,0.30065,132.67,36.872,12.682,0.45368,132.67,36.841,101.16,0.37292,cubic,0,7.165161956,H1a
mp-510436,InPd3,InPd3,140.78,118.72,43.667,0.35944,140.77,71.212,25.151,0.41569,140.78,34.409,95.45,0.387,tetragonal,0,10.87604554,H4
mp-567723,Nd(NiAs)2,Nd(NiAs)2,89.778,133.83,53.467,0.25155,89.773,124.94,49.266,0.26804,89.775,51.366,129.42,0.25974,tetragonal,0,8.083526548,H4
mp-7877,Sr(CuSi)2,Sr(CuSi)2,80.889,136.76,56.133,0.21821,80.328,132.76,54.209,0.22454,80.609,55.171,134.77,0.22135,tetragonal,0,5.149290237,H4
mp-16497,ScAlCu2,ScAlCu2,107.67,128.99,49.6,0.30032,107.67,106.43,39.855,0.33524,107.67,44.728,117.86,0.31755,cubic,0,5.54531378,H1a
mp-755544,YTlO2,YTlO2,105.44,130.12,50.267,0.29433,102.96,109.96,41.586,0.32202,104.2,45.927,120.13,0.30786,trigonal,1.7575,7.776998737,H2
mp-631754,ReSnGe,ReSnGe,132.67,103.06,37.6,0.37052,132.67,98.572,35.814,0.37617,132.67,36.707,100.82,0.37334,cubic,0,10.45743808,H1a
mp-10623,ThSbRh,ThSbRh,111.67,118.55,44.8,0.32306,111.67,111.73,41.901,0.33324,111.67,43.351,115.15,0.32813,cubic,0.9939,9.95534408,H5
mp-866046,Ti3In,Ti3In,108.67,120.47,45.8,0.31522,108.36,113.94,43.005,0.32475,108.51,44.402,117.22,0.31996,hexagonal,0,5.888116333,H4
mp-971647,NaMnO2,NaMnO2,87.889,144.1,58.733,0.22674,81.293,120.16,47.922,0.25366,84.591,53.328,132.2,0.23953,hexagonal,0,4.02870296,H4
mp-19387,CdWO4,CdWO4,120.22,117.97,44.133,0.33646,116.24,103.25,38.185,0.35196,118.23,41.159,110.64,0.34404,monoclinic,3.244,7.530508602,H2
mp-1018148,ScAu2,ScAu2,107.11,133.53,51.667,0.29223,105.71,102.99,38.499,0.33761,106.41,45.083,118.51,0.31438,tetragonal,0,12.93586171,H4
mp-12523,YbPO4,YbPO4,98.111,127.49,49.667,0.28343,97.027,120.88,46.766,0.29236,97.569,48.217,124.19,0.28786,tetragonal,0,6.520491889,H4
mp-4514,NaNbO3,NaNbO3,103.33,131.39,51,0.28809,102.98,109.5,41.389,0.32279,103.16,46.194,120.58,0.30518,trigonal,2.7872,4.323305459,H2
mp-4865,Er(NiGe)2,Er(NiGe)2,97,128.44,50.2,0.27931,94.679,122.01,47.468,0.28521,95.839,48.834,125.23,0.28222,tetragonal,0,8.918250157,H4
mp-862563,Sc2BeTc,Sc2BeTc,108,124.05,47.4,0.30856,108,110.61,41.606,0.3293,108,44.503,117.39,0.31885,cubic,0,4.918980988,H1a
mp-16327,DySbPt,DySbPt,98.667,123.46,47.8,0.29145,98.667,123.36,47.754,0.29162,98.667,47.777,123.41,0.29153,cubic,0.0493,10.99781907,H5
mp-1017632,Ni3SnN,Ni3SnN,102.33,124.98,48.2,0.29645,102.33,117.06,44.703,0.30934,102.33,46.451,121.04,0.30287,cubic,0,8.587874322,H1a
mp-10891,MnAlPd2,MnAlPd2,141.67,133.25,49.6,0.34324,141.67,52.444,18.231,0.4383,141.67,33.916,94.227,0.38914,cubic,0,8.265038171,H1a
mp-980760,SmNiGe2,SmNiGe2,103,123.74,47.6,0.29978,101.55,118.3,45.295,0.30586,102.28,46.448,121.02,0.30279,orthorhombic,0,7.957486529,H4
mp-2395,Sb3Rh,Sb3Rh,88.333,131.25,52.4,0.25236,88.333,128.17,50.936,0.25817,88.333,51.668,129.71,0.25526,cubic,0.2251,7.531757182,H5
mp-865801,LuPaTc2,LuPaTc2,116,119.54,45,0.32824,116,104.17,38.571,0.35033,116,41.786,111.92,0.3392,cubic,0,12.76521671,H1a
mp-1046,NbSn2,NbSn2,96.222,126.84,49.533,0.28031,95.944,122.99,47.807,0.28635,96.083,48.67,124.92,0.28332,orthorhombic,0,7.98274212,H4
mp-15960,Li5AlO4,Li5AlO4,80.889,135.18,55.333,0.22148,80.837,132.87,54.187,0.22605,80.863,54.76,134.03,0.22376,orthorhombic,4.6925,2.183757904,H2
mp-16342,HoGe,HoGe,81.667,142.65,59,0.20888,81.408,124.3,49.901,0.24551,81.537,54.45,133.61,0.22689,orthorhombic,0,8.75184822,H4
mp-985806,Al2Cu,Al2Cu,100,126.8,49.2,0.28866,100,117.86,45.205,0.30357,100,47.203,122.36,0.29607,cubic,0,4.064939117,H1a
mp-2780,Fe3Se4,Fe3Se4,89.222,133.83,53.533,0.25,87.94,125.04,49.501,0.26302,88.581,51.517,129.46,0.25643,monoclinic,0,7.002587263,H4
mp-989635,CaMoN3,CaMoN3,108.67,125.52,48,0.30749,101.42,112.59,42.812,0.31497,105.04,45.406,119.06,0.31109,monoclinic,0.906,4.111138118,H4
mp-30753,LaPd5,LaPd5,115.11,113.45,42.467,0.33574,115.04,111.14,41.5,0.33899,115.08,41.983,112.29,0.33736,hexagonal,0,9.792287683,H4
mp-25385,Li(CuO2)2,Li(CuO2)2,109.67,122.46,46.6,0.3139,109.67,109.11,40.891,0.33418,109.67,43.746,115.83,0.32396,cubic,0,4.599649321,H1a
mp-510401,GdP,GdP,80.333,138.68,57.2,0.21227,80.333,129.32,52.496,0.2317,80.333,54.848,134.04,0.22191,cubic,0,6.680095885,H1a
mp-8310,Li(NiP)2,Li(NiP)2,119.44,121.99,45.867,0.32979,116.03,98.525,36.263,0.35848,117.74,41.065,110.36,0.34377,tetragonal,0,4.758449721,H4
mp-20174,Ni3Sn4,Ni3Sn4,99,127.51,49.6,0.28534,97.881,118.53,45.654,0.29817,98.44,47.627,123.04,0.29169,monoclinic,0,8.453748073,H4
mp-4276,NaSi2Pd3,NaSi2Pd3,111.56,122.1,46.333,0.31759,100.03,114.28,43.632,0.3096,105.8,44.983,118.2,0.3138,orthorhombic,0,6.53561324,H4
mp-863736,Ho2OsAu,Ho2OsAu,113.67,114.55,43,0.33203,113.67,111.35,41.65,0.33673,113.67,42.325,112.95,0.33438,cubic,0,14.0746831,H1a