Material_ID,Formula,pretty_formula,KV ,EV ,GV ,PV ,KR ,ER ,GR ,PR ,bulk,shear,young,poisson,csyst,gap,density,y_cla
mp-2955,NaMgF3,NaMgF3,69.889,104.42,41.733,0.25099,69.735,103.8,41.456,0.25192,69.812,41.595,104.11,0.25146,orthorhombic,6.7539,2.949297513,H2
mp-9575,LiBeSb,LiBeSb,56.889,111.54,47.533,0.17324,56.64,110.9,47.243,0.17368,56.764,47.388,111.22,0.17346,hexagonal,0.9076,4.473698334,H1a
mp-755455,CuTeO4,CuTeO4,120.33,163.52,64.2,0.27352,19.667,42.621,18.713,0.13882,70,41.456,103.87,0.2527,monoclinic,0,5.072750882,H4
mp-11025,ZnP2,ZnP2,68.111,106.71,43.067,0.23888,68.096,103.25,41.389,0.24729,68.103,42.228,104.99,0.24307,tetragonal,1.4662,3.489621936,H1a
mp-2265,TbCo2,TbCo2,118.44,72.334,25.867,0.39822,117.93,70.771,25.276,0.39998,118.19,25.571,71.553,0.3991,cubic,0,9.910026406,H1a
mp-24726,TiH2,TiH2,138.67,72.88,25.8,0.4124,137.71,40.954,14.118,0.45044,138.19,19.959,57.126,0.4311,tetragonal,0,3.832732059,H4
mp-567406,SmZn5,SmZn5,75,105.33,41.6,0.26594,74.629,96.394,37.516,0.28472,74.814,39.558,100.89,0.27524,hexagonal,0,7.506664297,H4
mp-604516,Y2AlNi2,Y2AlNi2,89.333,95.211,36,0.32237,88.609,88.234,33.07,0.33404,88.971,34.535,91.736,0.32815,orthorhombic,0,5.785808962,H4
mp-21215,InPd,InPd,110.33,87.537,32,0.36777,110.33,66.329,23.692,0.3998,110.33,27.846,77.056,0.3836,cubic,0,10.13388564,H1a
mp-4428,CaSiO3,CaSiO3,77.111,106.78,42.067,0.2692,73.699,94.102,36.553,0.28719,75.405,39.31,100.47,0.27793,triclinic,4.7336,2.965709944,H5
mp-865281,Tm2AgPt,Tm2AgPt,96.333,87.886,32.6,0.34795,96.333,85.565,31.645,0.35196,96.333,32.122,86.727,0.34995,cubic,0,12.31272662,H1a
mp-21290,HoInPt,HoInPt,98.111,92.561,34.467,0.34276,96.097,79.598,29.222,0.36195,97.104,31.844,86.119,0.35219,hexagonal,0,12.04296471,H4
mp-979273,TePd3,TePd3,135.78,91.752,33.067,0.38738,135.77,23.683,8.0504,0.47093,135.77,20.559,58.712,0.42793,tetragonal,0,10.774057,H4
mp-997100,SrAgO2,SrAgO2,93.222,117.92,45.733,0.28918,66.877,76.865,29.373,0.30844,80.049,37.553,97.425,0.29716,tetragonal,0,6.087851707,H4
mp-867896,ScZnCu2,ScZnCu2,101.67,90.31,33.4,0.35195,101.67,75.43,27.402,0.37634,101.67,30.401,82.936,0.36404,cubic,0,6.57109265,H1a
mp-865561,Y2AgRu,Y2AgRu,89.333,91.46,34.4,0.32937,89.333,91.191,34.286,0.32987,89.333,34.343,91.326,0.32962,cubic,0,7.34529122,H1a
mp-979270,Tb2AgIr,Tb2AgIr,101,83.379,30.6,0.36241,101,83.36,30.592,0.36244,101,30.596,83.37,0.36243,cubic,0,11.62589259,H1a
mp-12553,PrAl3,PrAl3,69.111,115.87,47.467,0.22057,61.59,96.754,39.071,0.23818,65.351,43.269,106.34,0.2288,hexagonal,0,4.273985399,H4
mp-12029,Li2CuP,Li2CuP,64,114.82,47.8,0.201,56.899,103.17,43.064,0.19781,60.449,45.432,108.99,0.1995,hexagonal,0,3.321941276,H4
mp-4549,SrSiN2,SrSiN2,100.56,101.56,38.133,0.33167,91.258,71.728,26.197,0.369,95.907,32.165,86.793,0.34917,monoclinic,2.9788,4.221631164,H2
mp-15820,LiHoGe,LiHoGe,55,114.05,49.4,0.15438,54.602,109.62,47.03,0.1654,54.801,48.215,111.84,0.15985,hexagonal,0,6.686094832,H4
mp-22868,BiRh,BiRh,110.11,85.188,31.067,0.37106,96.962,77.773,28.461,0.36632,103.54,29.764,81.483,0.36883,hexagonal,0,12.35888136,H4
mp-21198,DyAgSn,DyAgSn,69.778,105.5,42.267,0.24801,67.665,102.9,41.275,0.24654,68.722,41.771,104.2,0.24729,hexagonal,0,8.93382406,H4
mp-22346,BaGe3Pt,BaGe3Pt,74.778,100.69,39.467,0.27559,74.777,100.22,39.251,0.27663,74.777,39.359,100.45,0.27611,tetragonal,0,8.211203788,H4
mp-22060,Nb3In,Nb3In,153,71.665,25.2,0.42193,153,18.845,6.3687,0.47947,153,15.784,45.779,0.45013,cubic,0,8.583207004,H1a
mp-2330,Nb2Se3,Nb2Se3,70.778,108.24,43.467,0.24511,66.505,100.03,40.034,0.24931,68.641,41.75,104.14,0.24715,monoclinic,0,6.756628865,H4
mp-1769,SbPd,SbPd,104.22,86.428,31.733,0.36179,104.18,75.173,27.242,0.37974,104.2,29.488,80.837,0.3707,hexagonal,0,8.969190247,H4
mp-1018902,PrSbPt,PrSbPt,94.889,96.663,36.333,0.33022,77.09,89.595,34.293,0.3063,85.989,35.313,93.184,0.31939,hexagonal,0,10.16699545,H4
mp-7223,Ca3AsN,Ca3AsN,52,113.25,49.8,0.13703,52,112.52,49.381,0.13935,52,49.591,112.89,0.13818,cubic,1.3783,3.200201829,H5
mp-2990,TmAgSn,TmAgSn,72.222,104.13,41.333,0.25969,71.849,99.927,39.397,0.2682,72.036,40.365,102.04,0.26392,hexagonal,0,9.38601198,H4
mp-862717,LiAlAu2,LiAlAu2,93.667,103.66,39.4,0.31554,93.667,71.669,26.109,0.37248,93.667,32.755,88.006,0.34341,cubic,0,11.31264473,H1a
mp-754158,KNdO2,KNdO2,71.333,111.54,45,0.23938,66.356,96.288,38.266,0.25815,68.844,41.633,103.95,0.24836,trigonal,3.7522,4.932220192,H2
mp-4666,CdSiP2,CdSiP2,74.778,105.42,41.667,0.26504,74.672,95.201,36.971,0.28751,74.725,39.319,100.35,0.27617,tetragonal,1.4257,3.869581081,H1a
mp-4075,TbZrSb,TbZrSb,80.333,104.24,40.6,0.28374,80.107,89.278,33.965,0.31425,80.22,37.283,96.845,0.29879,tetragonal,0,8.043920948,H4
mp-13208,Mg2Pt,Mg2Pt,73,109.92,44,0.24905,72.708,92.661,35.982,0.2876,72.854,39.991,101.42,0.26799,tetragonal,0,6.979158015,H4
mp-569724,ErAgSn,ErAgSn,71.556,104.4,41.533,0.25683,69.019,101.54,40.458,0.25481,70.287,40.996,102.97,0.25584,hexagonal,0,9.191907222,H4
mp-864623,ZnCuAu2,ZnCuAu2,125,100.04,36.6,0.36662,125,29.441,10.077,0.46075,125,23.339,65.914,0.41212,cubic,0,13.94381317,H1a
mp-1412,Ti3Sb,Ti3Sb,120,87.657,31.8,0.37825,120,50.606,17.698,0.42971,120,24.749,69.471,0.40351,cubic,0,6.204950256,H1a
mp-1007760,Ge,Ge,59.222,111,46.733,0.18761,59.208,107.39,44.832,0.1977,59.215,45.783,109.2,0.19264,hexagonal,0.0858,5.081784224,H1a
mp-1782,ScSe,ScSe,80.333,112.91,44.6,0.26576,80.333,79.532,29.787,0.335,80.333,37.194,96.663,0.29945,cubic,0,5.002107021,H1a
mp-861653,ThH3,ThH3,101,126.09,48.8,0.29193,99.611,35.638,12.371,0.44037,100.31,30.586,83.291,0.3616,tetragonal,0,9.540442979,H4
mp-567412,Y5Sn3,Y5Sn3,63,108.25,44.6,0.21361,61.387,106.89,44.177,0.20979,62.194,44.389,107.57,0.21172,hexagonal,0,5.778885589,H4
mp-10890,LiAl3,LiAl3,64.333,107.49,44,0.22152,64.333,105.2,42.851,0.22747,64.333,43.426,106.35,0.22449,cubic,0,2.237074984,H1a
mp-2741,CaF2,CaF2,76.333,103.02,40.4,0.27506,76.333,95.209,36.842,0.29212,76.333,38.621,99.143,0.28353,cubic,7.2479,3.089832592,H2
mp-1233,Cu6Sn5,Cu6Sn5,81.444,96.552,37.067,0.30242,81.365,95.035,36.402,0.30533,81.405,36.735,95.794,0.30387,monoclinic,0,8.061011197,H4
mp-971909,ZnPd3,ZnPd3,151,62.397,21.8,0.43113,150.95,30.807,10.507,0.46599,150.98,16.154,46.792,0.44834,hexagonal,0,10.53552448,H4
mp-16775,CdCu2,CdCu2,100.22,85.129,31.333,0.35843,100.21,81.144,29.722,0.36504,100.22,30.528,83.141,0.36173,hexagonal,0,8.924148148,H4
mp-867252,LiZn2Ni,LiZn2Ni,85.667,124.73,49.6,0.25734,85.667,57.931,20.879,0.38729,85.667,35.24,92.971,0.31912,cubic,0,6.431958586,H1a
mp-545512,CaO,CaO,86.889,110.14,42.733,0.28873,86.279,73.553,27.083,0.35792,86.584,34.908,92.318,0.3223,hexagonal,3.12,2.779379519,H1b
mp-976600,LiHf2Tc,LiHf2Tc,95,90.169,33.6,0.34181,95,83.077,30.673,0.35425,95,32.136,86.64,0.348,cubic,0,10.87880604,H1a
mp-851,ErPd,ErPd,98.667,84.183,31,0.3578,98.667,84.066,30.952,0.358,98.667,30.976,84.125,0.3579,cubic,0,10.77392655,H1a
mp-982974,LiBeAu2,LiBeAu2,58.667,110.53,46.6,0.18598,58.667,107.86,45.184,0.19357,58.667,45.892,109.2,0.18977,cubic,0,12.42878211,H1a
mp-32,Ge,Ge,59.333,111.55,47,0.18667,59.333,106.11,44.141,0.20194,59.333,45.571,108.85,0.19425,cubic,0,5.041970035,H1a
mp-12444,SrCuSF,SrCuSF,77.333,102.35,40,0.27941,71.546,97.815,38.445,0.27214,74.44,39.223,100.09,0.27591,tetragonal,1.5126,4.899800897,H1a
mp-505296,Ce2MgSi2,Ce2MgSi2,54.889,121.54,53.733,0.13095,52.639,101.36,42.982,0.17907,53.764,48.358,111.61,0.15401,tetragonal,0,5.219177833,H4
mp-22418,Sr3(SnIr)4,Sr3(SnIr)4,94.333,87.698,32.6,0.34506,94.333,86.342,32.039,0.34745,94.333,32.319,87.02,0.34625,cubic,0,9.140796269,H1a
mp-6669,Sr5P3O12F,Sr5P3O12F,74.778,100.25,39.267,0.27656,74.48,99.573,38.981,0.27718,74.629,39.124,99.912,0.27687,hexagonal,5.2119,3.985400557,H1b
mp-832,HoPd,HoPd,94.667,86.763,32.2,0.34725,94.667,86.603,32.134,0.34753,94.667,32.167,86.683,0.34739,cubic,0,10.53696745,H1a
mp-1146,ThS2,ThS2,90.778,92.728,34.867,0.32975,89.776,86.543,32.308,0.33934,90.277,33.587,89.645,0.3345,orthorhombic,1.0336,7.267713561,H2
mp-13915,LiNi2Sn,LiNi2Sn,108.33,117.65,44.6,0.31899,108.33,32.777,11.306,0.44957,108.33,27.953,77.217,0.3812,cubic,0,7.500204857,H1a
mp-1006887,CdC,CdC,100.33,89.706,33.2,0.35099,100.33,75.642,27.519,0.37435,100.33,30.36,82.734,0.36257,cubic,0,7.216164152,H1a
mp-580364,HoCu5,HoCu5,121,69.116,24.6,0.4048,121,67.175,23.864,0.40747,121,24.232,68.146,0.40613,cubic,0,9.296586531,H1a
mp-20987,YZnSn,YZnSn,66.778,110.77,45.267,0.22353,61.472,101.11,41.241,0.22586,64.125,43.254,105.94,0.22465,hexagonal,0,6.383479847,H4
mp-30820,Li2AlRh,Li2AlRh,80.333,103.8,40.4,0.28465,80.333,88.042,33.416,0.31734,80.333,36.908,96.02,0.30079,cubic,0,4.401298813,H1a
mp-20901,NiSe2,NiSe2,77.333,97.956,38,0.28889,77.333,97.867,37.96,0.28908,77.333,37.98,97.911,0.28898,cubic,0,6.879252732,H1a
mp-28150,BaNb2O6,BaNb2O6,100.44,116.25,44.467,0.30711,75.267,65.27,24.077,0.35547,87.856,34.272,90.984,0.3274,monoclinic,2.6629,5.294185872,H2
mp-977566,MgScPd2,MgScPd2,97,90.366,33.6,0.34473,97,79.15,29.014,0.364,97,31.307,84.798,0.3543,cubic,0,6.760922569,H1a
mp-862886,CaPmPt2,CaPmPt2,88.667,90.44,34,0.33,88.667,90.334,33.955,0.3302,88.667,33.978,90.387,0.3301,cubic,0,10.76895866,H1a
mp-3595,ZnSiAs2,ZnSiAs2,66.111,108.57,44.267,0.2263,66.09,100.55,40.336,0.24643,66.1,42.301,104.59,0.23628,tetragonal,0.8902,4.53076181,H1a
mp-569406,TmZn2,TmZn2,69.111,104.91,42.067,0.24699,68.584,101,40.253,0.25456,68.847,41.16,102.96,0.25075,orthorhombic,0,8.454838176,H4
mp-867834,LiHfPt2,LiHfPt2,143,74.609,26.4,0.41304,143,28.341,9.6597,0.46697,143,18.03,51.908,0.4395,cubic,0,14.65485743,H1a
mp-567767,CoCN2,CoCN2,93.667,108.25,41.4,0.30738,76.843,76.763,28.782,0.33351,85.255,35.091,92.573,0.31903,hexagonal,0,4.101985501,H4
mp-972244,Tm2ZnGa,Tm2ZnGa,69.667,110.68,44.8,0.23522,69.667,93.822,36.777,0.27555,69.667,40.789,102.38,0.25506,cubic,0,8.980263408,H1a
mp-4441,Ca(CuGe)2,Ca(CuGe)2,78.778,100.13,38.867,0.28815,77.967,93.742,36.065,0.29961,78.373,37.466,96.949,0.29383,tetragonal,0,5.865749805,H4
mp-7502,K2Sn2O3,K2Sn2O3,75.333,101.09,39.6,0.27636,75.102,96.618,37.578,0.28558,75.218,38.589,98.86,0.28095,trigonal,1.2205,3.841157621,H2
mp-10872,HfAlAu2,HfAlAu2,138.33,78.164,27.8,0.40583,138.33,31.132,10.644,0.46249,138.33,19.222,55.113,0.4336,cubic,0,13.69836197,H1a
mp-976060,Li3C,Li3C,66.333,114.06,47,0.21341,66.333,93.925,37.154,0.26401,66.333,42.077,104.2,0.23819,cubic,0,1.481679563,H1a
mp-865903,YbPmPt2,YbPmPt2,93.667,86.669,32.2,0.34579,93.667,86.664,32.198,0.34579,93.667,32.199,86.666,0.34579,cubic,0,13.54947229,H1a
mp-11957,CaSn2Ir,CaSn2Ir,77.667,104.16,40.8,0.27648,76.118,91.149,35.046,0.30042,76.892,37.923,97.706,0.28822,orthorhombic,0,8.556224724,H4
mp-20385,Nd3InC,Nd3InC,65,104.89,42.6,0.23106,65,104.87,42.594,0.23109,65,42.597,104.88,0.23108,cubic,0,6.864370613,H1a
mp-569523,Y2InNi2,Y2InNi2,77.333,102.35,40,0.27941,77.071,92.34,35.507,0.30031,77.202,37.753,97.386,0.28976,orthorhombic,0,6.600118733,H4
mp-28895,Ba(P2Pd)2,Ba(P2Pd)2,87.667,91.732,34.6,0.3256,87.622,89.416,33.617,0.32992,87.644,34.108,90.576,0.32776,tetragonal,0,5.52109978,H4
mp-9850,DyP5,DyP5,67.889,108.01,43.733,0.23484,62.63,101.24,41.135,0.23059,65.26,42.434,104.63,0.2328,monoclinic,0.1471,4.31024272,H4
mp-12759,Zn2CuAu,Zn2CuAu,112.11,78.226,28.267,0.38371,111.96,69.216,24.774,0.39696,112.03,26.52,73.742,0.3903,orthorhombic,0,11.04927654,H4
mp-662,NiSe,NiSe,119.22,72.54,25.933,0.39859,118.85,64.867,23.018,0.40903,119.03,24.476,68.718,0.40378,hexagonal,0,7.42651343,H4
mp-5068,DyZrSb,DyZrSb,83.667,102.16,39.4,0.29649,82.36,84.736,31.891,0.32853,83.013,35.645,93.547,0.31219,tetragonal,0,8.186241875,H4
mp-30731,HoSnPd2,HoSnPd2,110.33,76.938,27.8,0.38378,110.33,72.81,26.19,0.39001,110.33,26.995,74.879,0.38689,cubic,0,10.56384406,H1a
mp-568293,Ca3N2,Ca3N2,72.556,101.23,39.933,0.26747,72.259,99.302,39.066,0.27096,72.407,39.5,100.27,0.26921,orthorhombic,1.3103,2.775764226,H2
mp-23102,Sr2Cu(ClO)2,Sr2Cu(ClO)2,77.667,102.85,40.2,0.27928,70.789,95.405,37.403,0.27538,74.228,38.801,99.131,0.27742,tetragonal,0,4.437667488,H4
mp-13431,Dy2AlCo2,Dy2AlCo2,96.111,88.994,33.067,0.34568,95.183,80.984,29.813,0.3582,95.647,31.44,85.005,0.35188,orthorhombic,0,8.47141732,H4
mp-864674,Ho2AlZn,Ho2AlZn,70.667,110.95,44.8,0.23832,70.667,91.189,35.484,0.28493,70.667,40.142,101.25,0.26119,cubic,0,7.64264216,H1a
mp-972879,Sc2RuAu,Sc2RuAu,99.667,94.478,35.2,0.34201,99.667,69.484,25.106,0.38381,99.667,30.153,82.172,0.36259,cubic,0,8.895834089,H1a
mp-973402,SbPd3,SbPd3,148.33,87.991,31.4,0.40113,148.33,3.6865,1.2322,0.49586,148.33,16.316,47.217,0.44695,cubic,0,10.92564353,H1a
mp-672299,YInNi,YInNi,86.222,96.497,36.733,0.31347,86.132,85.87,32.189,0.33384,86.177,34.461,91.224,0.32357,hexagonal,0,7.089476259,H4
mp-864995,DyAl3,DyAl3,71.444,111.71,45.067,0.2394,70.742,89.566,34.743,0.28898,71.093,39.905,100.85,0.26358,hexagonal,0,5.137668856,H4
mp-1008873,MnCoSe,MnCoSe,88.667,90.44,34,0.33,88.667,88.667,33.25,0.33333,88.667,33.625,89.554,0.33166,cubic,0,7.187685318,H1a
mp-11492,LuNi2Sn,LuNi2Sn,104,79.099,28.8,0.37324,104,79.016,28.767,0.37337,104,28.784,79.057,0.37331,cubic,0,10.46298984,H1a
mp-19112,FeSO4,FeSO4,77,101.85,39.8,0.27954,70.107,96.782,38.106,0.26992,73.553,38.953,99.325,0.27494,orthorhombic,4.1128,3.471794233,H2
mp-1860,LaSi,LaSi,68.556,104.49,41.933,0.24596,68.504,100.25,39.906,0.25609,68.53,40.92,102.38,0.25101,orthorhombic,0,5.409187963,H4
mp-7709,ZnF2,ZnF2,96.111,87.058,32.267,0.34903,95.484,82.292,30.335,0.35636,95.797,31.301,84.68,0.35267,orthorhombic,3.5601,4.752236599,H2
mp-558674,K2NaFeF6,K2NaFeF6,99.333,82.263,30.2,0.36197,99.333,82.184,30.168,0.36211,99.333,30.184,82.223,0.36204,cubic,4.1367,2.975815973,H2
mp-9453,Sr2ZnCu2(SO)2,Sr2ZnCu2(SO)2,74.333,104.33,41.2,0.26609,64.193,99.26,39.951,0.24229,69.263,40.575,101.84,0.25494,tetragonal,0.8326,5.309931879,H1a
mp-13535,Tb2ZnNi2,Tb2ZnNi2,98.778,88.27,32.667,0.35106,92.576,81.046,29.926,0.35409,95.677,31.297,84.659,0.35253,orthorhombic,0,8.941627002,H4
mp-865527,YAl3,YAl3,72.667,113.95,46,0.23864,70.528,86.263,33.277,0.29615,71.597,39.638,100.39,0.26631,hexagonal,0,3.572402503,H4
mp-961716,VSnPt,VSnPt,137,61.564,21.6,0.4251,137,49.005,17.011,0.44038,137,19.306,55.318,0.4327,cubic,0,10.28631395,H1a
mp-979011,TmZr,TmZr,69.778,102.15,40.667,0.256,69.734,100.85,40.055,0.25896,69.756,40.361,101.5,0.25748,hexagonal,0,8.184553829,H4
mp-4192,Ca3AsN,Ca3AsN,59.444,107.54,44.867,0.19848,59.369,107.23,44.72,0.19896,59.406,44.793,107.39,0.19872,orthorhombic,0.895,3.192613827,H2
mp-997005,CaAgO2,CaAgO2,100,100.71,37.8,0.33215,96.653,64.193,23.103,0.38931,98.326,30.451,82.806,0.35964,orthorhombic,0,5.446697677,H4
mp-21445,Ba3In2O5F2,Ba3In2O5F2,85.667,94.73,36,0.3157,82.624,90.004,34.132,0.31845,84.146,35.066,92.368,0.31705,tetragonal,1.6235,6.026290766,H1a
mp-2178,YbGa2,YbGa2,52.667,113.25,49.6,0.14162,51.053,108.94,47.599,0.14436,51.86,48.6,111.1,0.14296,hexagonal,0,8.385482607,H4
mp-776216,AlCoO3,AlCoO3,84,111.07,43.4,0.27962,69.3,83.076,31.947,0.3002,76.65,37.674,97.111,0.28884,triclinic,0.0148,4.769838379,H5
mp-2104,UAs,UAs,90,127.42,50.4,0.26404,90,44.572,15.722,0.41746,90,33.061,88.364,0.33636,cubic,0,10.70891474,H1a
mp-31468,LiCaN,LiCaN,69.444,102.49,40.867,0.25401,69.361,100.61,39.982,0.25824,69.403,40.424,101.56,0.25612,orthorhombic,1.3816,2.335579398,H2
mp-4120,CaCuAs,CaCuAs,66.556,109.64,44.733,0.22545,59.061,100.97,41.547,0.21508,62.808,43.14,105.31,0.22055,hexagonal,0,4.88684105,H4
mp-8276,Sr(ZnP)2,Sr(ZnP)2,63.444,106.95,43.867,0.21904,63.346,102.9,41.854,0.22927,63.395,42.86,104.93,0.22413,trigonal,0.8289,4.453666408,H2
mp-4385,CdCO3,CdCO3,96.222,92.531,34.533,0.33973,85.523,82.55,30.822,0.33913,90.873,32.678,87.54,0.33944,trigonal,2.6795,4.744605891,H2
mp-16250,Th(SiAu)2,Th(SiAu)2,112.33,88.675,32.4,0.36844,93.644,69.734,25.341,0.37589,102.99,28.871,79.21,0.37181,tetragonal,0,11.6559608,H4
mp-959,LaAl3,LaAl3,73.889,109.58,43.733,0.25283,72.718,87.879,33.837,0.29858,73.303,38.785,98.91,0.27511,hexagonal,0,4.087710982,H4
mp-2748,CeAs,CeAs,61.667,115.09,48.4,0.18895,61.667,95.98,38.683,0.24059,61.667,43.542,105.74,0.21422,cubic,0,6.691140693,H1a
mvc-14149,CoO2,CoO2,86.778,122.58,48.467,0.26457,78.959,60.786,22.157,0.37169,82.868,35.312,92.76,0.31344,tetragonal,0.5902,4.658795235,H1a
mp-8402,RbMgF3,RbMgF3,65,104.89,42.6,0.23106,65,102.66,41.504,0.23677,65,42.052,103.78,0.23391,cubic,6.9632,3.936139682,H2
mp-20206,ThIn3,ThIn3,68.333,106.22,42.8,0.24092,68.333,97.262,38.511,0.26278,68.333,40.656,101.78,0.25175,cubic,0,8.932558353,H1a
mp-568113,Ba(AsRh)2,Ba(AsRh)2,80.889,99.759,38.533,0.29445,80.115,88.492,33.624,0.31591,80.502,36.079,94.168,0.30504,tetragonal,0,7.461447711,H4
mp-644264,Ca4Mg4Fe3H22,Ca4Mg4Fe3H22,61,106.02,43.8,0.21032,61,105.93,43.75,0.21058,61,43.775,105.97,0.21045,cubic,1.4456,2.485597532,H5
mp-755586,NaLaO2,NaLaO2,93.222,95.055,35.733,0.33006,82.589,83.507,31.359,0.33148,87.906,33.546,89.281,0.33073,tetragonal,3.2419,4.856073065,H4
mp-977428,YbAl2Cu,YbAl2Cu,68.889,102.5,40.933,0.25202,68.328,100.67,40.124,0.25445,68.609,40.529,101.58,0.25323,trigonal,0,6.552322181,H2
mp-11555,PuRu,PuRu,175.67,31.173,10.6,0.47042,175.67,21.142,7.1429,0.47994,175.67,8.8714,26.174,0.47517,cubic,0,16.35784064,H1a
mp-862321,LiAsPd2,LiAsPd2,104,98.272,36.6,0.34251,104,57.239,20.323,0.40827,104,28.461,78.246,0.37461,cubic,0,8.371516587,H1a
mp-11209,AlAs,AlAs,83.444,94.574,36.067,0.3111,83.179,89.996,34.098,0.31967,83.312,35.082,92.292,0.31537,hexagonal,0,4.549895624,H4
mp-581707,ZrInAu2,ZrInAu2,120.67,96.242,35.2,0.36707,120.67,34.723,11.957,0.45204,120.67,23.578,66.409,0.40827,cubic,0,12.46329721,H1a
mp-864883,MgSnPd2,MgSnPd2,112.33,102.45,38,0.348,112.33,40.174,13.945,0.44039,112.33,25.973,72.343,0.39267,cubic,0,8.578166869,H1a
mp-862980,PmAl3,PmAl3,70.111,112.56,45.667,0.23242,62.6,93.086,37.17,0.25217,66.356,41.418,102.85,0.24166,hexagonal,0,4.502679429,H4
mp-20690,NdFeSi,NdFeSi,64.889,119.22,49.933,0.19379,52.885,94.765,39.441,0.20135,58.887,44.687,107,0.19717,tetragonal,0,6.570138694,H4
mp-976271,KTi2F7,KTi2F7,80.222,107.57,42.133,0.27652,73.283,85.163,32.597,0.30632,76.753,37.365,96.444,0.29057,orthorhombic,0,3.280331261,H4
mp-12063,Ce(AgGe)2,Ce(AgGe)2,76.222,98.049,38.133,0.28561,75.687,95.791,37.155,0.28906,75.954,37.644,96.921,0.28733,tetragonal,0,8.020900064,H4
mp-977580,MgSc2Al,MgSc2Al,65,121.28,51,0.18902,65,84.342,32.85,0.28374,65,41.925,103.52,0.23457,cubic,0,2.827087929,H1a
mp-1018751,LaS2,LaS2,89.778,95.888,36.267,0.32199,89.039,80.048,29.644,0.35016,89.408,32.955,88.048,0.33587,tetragonal,0,4.95134874,H4
mp-20438,PuTe,PuTe,75.333,98.907,38.6,0.28118,75.333,95.474,37.041,0.28877,75.333,37.82,97.196,0.28497,cubic,0,11.20672236,H1a
mp-978546,Sc3Sb,Sc3Sb,67.778,109.46,44.467,0.23083,67.623,94.061,37.085,0.26817,67.7,40.776,101.87,0.2492,tetragonal,0,4.634842823,H4
mp-19060,Sr2Mn3(AsO)2,Sr2Mn3(AsO)2,68.333,103.75,41.6,0.24696,65.792,100.66,40.428,0.24499,67.063,41.014,102.21,0.24599,tetragonal,0,4.974791117,H4
mp-3448,KMgF3,KMgF3,64.333,103.89,42.2,0.23087,64.333,103.65,42.082,0.23148,64.333,42.141,103.77,0.23118,cubic,6.9537,3.001905615,H2
mp-1025431,SmPt,SmPt,94.667,88.212,32.8,0.3447,92.321,82.069,30.354,0.35184,93.494,31.577,85.146,0.34822,orthorhombic,0,12.18492491,H4
mp-972987,Mn3Tl,Mn3Tl,53.667,109.5,47.2,0.15994,53.667,109.31,47.095,0.16053,53.667,47.148,109.4,0.16023,cubic,0,9.41960237,H1a
mp-867109,ScZn2Ag,ScZn2Ag,81,111.33,43.8,0.27092,81,74.431,27.632,0.34685,81,35.716,93.417,0.30778,cubic,0,6.912890756,H1a
mp-864626,HoThTc2,HoThTc2,120,95.198,34.8,0.36778,120,36.096,12.448,0.44987,120,23.624,66.508,0.40763,cubic,0,11.7957416,H1a
mp-2285,Te2Ir,Te2Ir,85.444,123.13,48.867,0.25983,82.62,56.688,20.455,0.38565,84.032,34.661,91.414,0.31869,trigonal,0,9.731602001,H2
mp-862710,Sc2CdTc,Sc2CdTc,101.33,80.921,29.6,0.36691,101.33,78.272,28.54,0.37126,101.33,29.07,79.599,0.36908,cubic,0,6.504060031,H1a
mp-863732,Pm2PtRh,Pm2PtRh,100.67,81.371,29.8,0.36528,100.67,78.695,28.727,0.36971,100.67,29.263,80.035,0.36749,cubic,0,10.83767328,H1a
mp-973229,ScNb,ScNb,93.778,88.767,33.067,0.34224,93.618,80.783,29.783,0.35618,93.698,31.425,84.795,0.34917,hexagonal,0,5.545294232,H4