Material_ID,Formula,pretty_formula,KV ,EV ,GV ,PV ,KR ,ER ,GR ,PR ,bulk,shear,young,poisson,csyst,gap,density,y_cla
mp-977356,ZnGaIr2,ZnGaIr2,212.67,275.34,107.2,0.28422,212.67,265.86,102.91,0.29165,212.67,105.06,270.61,0.28792,cubic,0,15.33704133,H1a
mp-1263,URu3,URu3,250,255.32,96,0.32979,250,236.91,88.263,0.34206,250,92.132,246.16,0.3359,cubic,0,14.03102732,H1a
mp-552454,SrTaNO2,SrTaNO2,180.11,295.52,120.47,0.22654,173.38,288.88,118.17,0.22231,176.74,119.32,292.2,0.22446,tetragonal,0.766,7.857424229,H1a
mp-7948,ReSi,ReSi,246.67,279.53,106.6,0.31113,246.67,216.11,79.804,0.35398,246.67,93.202,248.33,0.33221,cubic,0,12.8284704,H1a
mp-32570,Al2O3,Al2O3,197.33,297.25,119,0.24895,196.04,262.88,102.97,0.27651,196.68,110.98,280.24,0.26253,monoclinic,4.1331,3.575539395,H2
mp-756630,DyAlO3,DyAlO3,193.11,288,115.07,0.25144,191.74,277.53,110.24,0.25877,192.43,112.65,282.77,0.25508,orthorhombic,5.7232,7.547275593,H2
mp-866219,HfSnRu2,HfSnRu2,202.33,276.79,108.8,0.272,202.33,276.69,108.76,0.27208,202.33,108.78,276.74,0.27204,cubic,0,12.35905016,H1a
mp-569128,SiB3,SiB3,157,304.53,129.4,0.17672,154.83,301.24,128.11,0.17573,155.92,128.75,302.89,0.17623,orthorhombic,1.4934,2.449973602,H2
mp-759943,Al2O3,Al2O3,197.33,296.42,118.6,0.24965,196.42,262.22,102.63,0.27751,196.88,110.61,279.5,0.26339,monoclinic,4.0646,3.57452754,H2
mp-865191,FeGeRu2,FeGeRu2,227,262.04,100.2,0.3076,227,258.59,98.688,0.31014,227,99.444,260.32,0.30887,cubic,0,10.09676475,H1a
mp-5529,MnFe2Si,MnFe2Si,232.67,301.49,117.4,0.28403,232.67,209.38,77.549,0.35001,232.67,97.474,256.59,0.3162,cubic,0,7.393942888,H1a
mp-1410,DyN,DyN,170,294.96,121.8,0.21083,170,294.92,121.78,0.21086,170,121.79,294.94,0.21084,cubic,0.2115,9.888097362,H5
mp-11661,Zr3N4,Zr3N4,195.33,280.39,111.2,0.26076,195.33,279.9,110.97,0.26118,195.33,111.08,280.14,0.26097,cubic,0.6862,6.929324565,H5
mp-4391,MgSiO3,MgSiO3,201.11,308.72,124.07,0.24416,197.94,245.14,94.75,0.29359,199.53,109.41,277.5,0.2682,orthorhombic,4.6321,3.959698966,H2
mp-784630,Ni2Mo,Ni2Mo,233.11,278.55,107.07,0.30084,233,233.09,87.413,0.33327,233.06,97.24,256.1,0.31685,orthorhombic,0,9.444207552,H4
mp-865876,Ti2TcOs,Ti2TcOs,227,262.04,100.2,0.3076,227,257.98,98.422,0.31059,227,99.311,260.01,0.30909,cubic,0,10.69039634,H1a
mp-1010071,CrCo,CrCo,210.33,291.39,114.8,0.26911,210.33,249.24,95.679,0.3025,210.33,105.24,270.59,0.28559,cubic,0,7.947124532,H1a
mp-54,Co,Co,212.33,272.63,106,0.286,212.33,265.67,102.86,0.29147,212.33,104.43,269.16,0.28873,hexagonal,0,8.959676195,H4
mp-2533,NbO2,NbO2,235.22,284.9,109.73,0.29814,234.92,222.9,83.055,0.34186,235.07,96.394,254.41,0.31962,tetragonal,0,5.647407447,H4
mp-864908,MgTiIr2,MgTiIr2,199,278.23,109.8,0.26698,199,276.66,109.07,0.26829,199,109.43,277.44,0.26763,cubic,0.0426,12.71354783,H5
mp-284,AlCo,AlCo,178.33,294.45,120.2,0.22482,178.33,284.8,115.42,0.23383,178.33,117.81,289.64,0.22931,cubic,0,6.136768975,H1a
mp-998947,TiRu3,TiRu3,246.33,266.57,101,0.31964,246.33,226.62,84.14,0.34667,246.33,92.57,246.8,0.33302,cubic,0,10.13981389,H1a
mp-865038,HfTaTc2,HfTaTc2,227,266.14,102,0.3046,227,252.69,96.12,0.31447,227,99.06,259.44,0.30951,cubic,0,13.75278596,H1a
mp-978952,SnPbO3,SnPbO3,225.33,263.61,101,0.30502,225.33,257.41,98.278,0.30961,225.33,99.639,260.52,0.30731,cubic,1.1196,8.82874279,H5
mp-3092,DyB2Ru3,DyB2Ru3,207.11,273.99,107.07,0.27952,206.97,270.37,105.42,0.28228,207.04,106.25,272.18,0.2809,hexagonal,0,10.13859924,H4
mp-866071,MgTaOs2,MgTaOs2,228.67,265.94,101.8,0.30617,228.67,250.62,95.125,0.31733,228.67,98.463,258.31,0.31173,cubic,0,15.58292795,H1a
mp-989564,LaOsN3,LaOsN3,221.33,265.7,102.2,0.29992,221.33,259.9,99.635,0.30429,221.33,100.92,262.81,0.3021,cubic,0,9.996103463,H1a
mp-11736,ZrSiO4,ZrSiO4,225.89,268.98,103.33,0.30154,218.34,255.56,97.92,0.30493,222.11,100.63,262.27,0.3032,tetragonal,4.0315,4.98662807,H4
mp-753781,EuHfO3,EuHfO3,205.33,280,110,0.27273,205.33,265.77,103.47,0.28428,205.33,106.73,272.92,0.27848,cubic,0.5973,8.894546648,H5
mp-862691,Al2FeCo,Al2FeCo,181.33,292.92,119,0.23077,181.33,281.71,113.5,0.24107,181.33,116.25,287.34,0.2359,cubic,0,5.977171574,H1a
mp-7829,MnNbSi,MnNbSi,209.67,285.21,112,0.27328,208.46,255.15,98.437,0.296,209.06,105.22,270.31,0.28451,hexagonal,0,7.009998038,H4
mp-828,SiNi3,SiNi3,215.33,276.71,107.6,0.28583,215.33,255.81,98.239,0.302,215.33,102.92,266.33,0.29386,cubic,0,7.875710486,H1a
mp-984352,Al2CoOs,Al2CoOs,200,279.73,110.4,0.26689,200,272.08,106.84,0.27327,200,108.62,275.91,0.27007,cubic,0,9.731906873,H1a
mp-1871,Fe2C,Fe2C,223.11,270.64,104.27,0.29783,218.36,254.95,97.65,0.30541,220.74,100.96,262.81,0.30157,orthorhombic,0,7.209578693,H4
mp-2515,CrPt3,CrPt3,230.67,260.75,99.4,0.3116,230.67,251.56,95.415,0.31824,230.67,97.407,256.16,0.31491,cubic,0,17.54410508,H1a
mp-22270,CoP,CoP,193.44,282.21,112.27,0.25686,193.23,277.19,109.92,0.26091,193.34,111.09,279.7,0.25888,orthorhombic,0,6.48318587,H4
mp-865888,TiSnRu2,TiSnRu2,202.33,274.19,107.6,0.27414,202.33,274.12,107.56,0.2742,202.33,107.58,274.16,0.27417,cubic,0.1133,9.777328078,H5
mp-11329,P2W,P2W,191.56,298.09,120.13,0.24064,186.45,266.11,105.42,0.26212,189,112.78,282.2,0.25115,monoclinic,0,9.14995168,H4
mp-977545,ZrTc2W,ZrTc2W,197.67,286.43,113.8,0.25849,197.67,267.01,104.72,0.27486,197.67,109.26,276.79,0.26662,cubic,0,11.85792332,H1a
mp-730,P2Pt,P2Pt,177,298.41,122.4,0.21901,177,279.4,112.94,0.23691,177,117.67,288.98,0.22789,cubic,1.1258,8.957968473,H5
mp-22444,Ta4FeP,Ta4FeP,219.11,264.15,101.67,0.29908,218.26,262.83,101.14,0.2993,218.68,101.4,263.49,0.29919,tetragonal,0,14.16267573,H4
mp-567462,Sc3RhC4,Sc3RhC4,180.22,289.64,117.53,0.23215,175.79,286.55,116.64,0.22832,178.01,117.09,288.1,0.23026,monoclinic,0,5.05214362,H4
mp-1590,Be12Cr,Be12Cr,126.44,314.81,145.07,0.08505,126.02,311.02,142.85,0.088656,126.23,143.96,312.92,0.086847,tetragonal,0,2.492767773,H4
mp-3747,Ti3AlC2,Ti3AlC2,159.11,299.93,126.47,0.18582,157.85,297.35,125.35,0.18604,158.48,125.91,298.64,0.18593,hexagonal,0,4.207863242,H4
mp-22793,AlFe3C,AlFe3C,229.67,275.6,106,0.3,229.67,235.68,88.672,0.32897,229.67,97.336,255.86,0.31432,cubic,0,6.473381532,H1a
mp-12648,Ti2Be17,Ti2Be17,127.22,312.6,143.33,0.090476,127.22,312.17,143.06,0.091035,127.22,143.2,312.39,0.090755,trigonal,0,2.478861659,H2
mp-977534,ZrNbTc2,ZrNbTc2,245.33,253.83,95.6,0.32756,245.33,236.84,88.433,0.3391,245.33,92.017,245.37,0.33331,cubic,0,9.255032112,H1a
mp-21662,TiFeSi2,TiFeSi2,181,287.15,116.2,0.23559,179.67,285.57,115.61,0.23509,180.33,115.9,286.36,0.23534,orthorhombic,0,5.143235694,H4
mp-2263,ScIr2,ScIr2,220,269.08,103.8,0.29615,220,254.32,97.268,0.30733,220,100.53,261.73,0.30172,cubic,0,14.00545279,H1a
mp-984728,BC,BC,284.56,351.34,135.73,0.29422,261.4,87.424,30.266,0.44426,272.98,83,226.09,0.36196,hexagonal,0,2.797615875,H4
mp-775757,HfO2,HfO2,217.78,270.2,104.47,0.29322,214.08,257.91,99.255,0.29921,215.93,101.86,264.06,0.29618,orthorhombic,4.0165,10.01381746,H2
mp-20197,Cr2GaC,Cr2GaC,181.11,287.72,116.47,0.23522,179.19,284.06,114.93,0.23578,180.15,115.7,285.89,0.2355,hexagonal,0,6.887637825,H4
mp-3186,TbB2Ru3,TbB2Ru3,209,269.82,105,0.28484,208.98,266.96,103.71,0.28708,208.99,104.35,268.39,0.28596,hexagonal,0,10.02991639,H4
mp-1251,VRh,VRh,233.22,271.47,103.93,0.306,233.15,233.21,87.455,0.33329,233.18,95.694,252.54,0.3195,tetragonal,0,9.269430676,H4
mp-1025379,Tb2B4C,Tb2B4C,163,308.47,130.2,0.18459,161.84,282.3,116.72,0.20928,162.42,123.46,295.51,0.19676,orthorhombic,0,7.524539968,H4
mp-977390,Ta3Ru,Ta3Ru,266,230.94,85.2,0.3553,266,229.81,84.738,0.35601,266,84.969,230.38,0.35565,cubic,0,15.76772987,H1a
mp-1232,Mo3Pt,Mo3Pt,266,259.94,97.2,0.33713,266,199.73,72.636,0.37486,266,84.918,230.25,0.35573,cubic,0,12.66632571,H1a
mp-3792,YAlO3,YAlO3,190.56,285,113.93,0.25073,189.05,274.45,109.08,0.25804,189.8,111.51,279.74,0.25436,orthorhombic,5.54,5.187109823,H2
mp-650,Be5Pd,Be5Pd,145.67,303.78,131.8,0.15243,145.67,303.12,131.43,0.15319,145.67,131.61,303.45,0.15281,cubic,0,4.675355102,H1a
mp-865652,TiMn2Si,TiMn2Si,206.33,275,107.6,0.27787,206.33,263.68,102.44,0.28701,206.33,105.02,269.36,0.28242,cubic,0,6.352313333,H1a
mp-982734,WN2,WN2,257.78,368.58,146.07,0.26169,247.92,91.346,31.748,0.43859,252.85,88.908,238.74,0.34263,tetragonal,0,10.08762288,H4
mp-28254,LiRuO2,LiRuO2,200.11,281.18,111.07,0.26581,194.06,268.39,105.71,0.26949,197.08,108.39,274.79,0.26762,orthorhombic,0,6.442863307,H4
mp-30788,SnMo3,SnMo3,216.67,268.07,103.6,0.29379,216.67,256.66,98.519,0.30257,216.67,101.06,262.38,0.29817,cubic,0,10.01367989,H1a
mp-867120,TaMn2Al,TaMn2Al,201,278.66,109.8,0.26894,201,265.36,103.66,0.27996,201,106.73,272.04,0.27443,cubic,0,9.781667477,H1a
mp-344,BN,BN,263.56,374.7,148.33,0.26305,94.929,191.8,82.442,0.16325,179.24,115.39,285.01,0.23499,monoclinic,3.5021,2.542715603,H2
mp-292,V3As,V3As,194,278.39,110.4,0.26083,194,273.5,108.1,0.26503,194,109.25,275.95,0.26293,cubic,0,7.121143003,H1a
mp-568541,Dy2B4C,Dy2B4C,164,309.61,130.6,0.18535,161.37,277.9,114.56,0.21297,162.68,122.58,293.91,0.19889,orthorhombic,0,7.773073779,H4
mp-867326,Al2RuRh,Al2RuRh,179.67,284.33,115,0.23624,179.67,284.33,115,0.23624,179.67,115,284.33,0.23624,cubic,0,7.905751476,H1a
mp-40793,Si3N4,Si3N4,227.44,257.23,98.067,0.31151,223.26,254.72,97.235,0.30985,225.35,97.651,255.98,0.31068,hexagonal,1.8207,3.512076466,H1a
mp-20249,MnCoP,MnCoP,200.11,276.03,108.67,0.2701,197.27,269.79,106.05,0.27206,198.69,107.36,272.91,0.27107,orthorhombic,0,7.097485336,H4
mp-7915,ZrSiO,ZrSiO,181.89,286.04,115.53,0.2379,181.78,279.87,112.54,0.2434,181.83,114.04,282.96,0.24064,tetragonal,0,5.545434286,H4
mp-1029267,CaZrN2,CaZrN2,162.44,295.53,123.47,0.19679,161.98,292.25,121.84,0.1993,162.21,122.66,293.89,0.19804,trigonal,0.4205,4.887887756,H2
mp-1008349,Co3Ni,Co3Ni,205,289.8,114.6,0.26439,205,247.32,95.201,0.29893,205,104.9,268.84,0.28143,cubic,0,9.011466577,H1a
mp-975138,RbWO3,RbWO3,175,287.03,117,0.22664,175,286.37,116.67,0.22727,175,116.83,286.7,0.22695,cubic,0,7.883131845,H1a
mp-20814,Dy(BC)2,Dy(BC)2,201.56,306.9,123.13,0.24622,157.32,261.16,106.74,0.22333,179.44,114.94,284.14,0.23608,tetragonal,0,6.659429816,H4
mp-974061,KSiO3,KSiO3,176.67,293.14,119.8,0.22345,176.67,278.07,112.34,0.23767,176.67,116.07,285.65,0.23052,cubic,0,3.828252808,H1a
mp-568912,Be12Nb,Be12Nb,133.89,312.65,140.73,0.1108,132.54,302.08,134.84,0.12014,133.21,137.79,307.38,0.11543,tetragonal,0,2.957777324,H4
mp-865948,Ti2ReRh,Ti2ReRh,214.33,264.55,102.2,0.29428,214.33,260.64,100.45,0.29732,214.33,101.33,262.6,0.2958,cubic,0,10.60435296,H1a
mp-864927,Hf2ReOs,Hf2ReOs,218,260.66,100.2,0.30072,218,259.77,99.805,0.3014,218,100,260.22,0.30106,cubic,0,17.51386088,H1a
mp-753459,Nb3O7F,Nb3O7F,215.11,297.27,117.07,0.26967,212.56,226.42,85.605,0.32247,213.84,101.34,262.54,0.29538,orthorhombic,1.5297,4.883744217,H2
mp-14285,CoP2,CoP2,164.78,309.67,130.47,0.18678,161.85,275.09,113.05,0.21671,163.31,121.76,292.56,0.20143,monoclinic,0.5446,5.113650295,H4
mp-980749,VFeRu2,VFeRu2,214.33,264.55,102.2,0.29428,214.33,259.69,100.03,0.29806,214.33,101.12,262.13,0.29617,cubic,0,9.436951136,H1a
mp-862695,Al2CoRu,Al2CoRu,188,279.5,111.6,0.25222,188,277.43,110.61,0.25405,188,111.11,278.46,0.25313,cubic,0,6.975698535,H1a
mp-972323,TaNbTc2,TaNbTc2,195,283.7,112.8,0.25752,195,264.15,103.65,0.27423,195,108.23,273.99,0.26582,cubic,0,11.97658388,H1a
mp-18257,Fe7C3,Fe7C3,241.89,244.32,91.733,0.33166,240.98,243.76,91.541,0.33142,241.44,91.637,244.04,0.33154,hexagonal,0,7.81817801,H4
mp-11273,Be3Nb,Be3Nb,154.44,297.68,126.27,0.17877,154.43,295.37,125.03,0.18122,154.44,125.65,296.53,0.17999,trigonal,0,4.710119679,H2
mp-4073,Sm(CoB)2,Sm(CoB)2,234.44,259.58,98.667,0.31546,221.06,245.51,93.358,0.3149,227.75,96.012,252.55,0.31519,tetragonal,0,7.729413742,H4
mp-725,RhO2,RhO2,237.44,290.5,112.07,0.29609,229.55,205.39,76.02,0.35088,233.5,94.043,248.74,0.32246,tetragonal,0,6.886608286,H4
mp-102,Co,Co,211.67,285.62,112,0.2751,211.67,239.51,91.319,0.31141,211.67,101.66,262.89,0.293,cubic,0,8.967094747,H1a
mp-19062,NdCrO3,NdCrO3,193,284.48,113.4,0.25433,193,264.32,103.92,0.27175,193,108.66,274.47,0.26298,cubic,0,6.826963263,H1a
mp-865914,TiVTc2,TiVTc2,233.33,255.12,96.8,0.31777,233.33,242.27,91.289,0.32695,233.33,94.044,248.72,0.32234,cubic,0,8.49906549,H1a
mp-579496,Fe3PtN,Fe3PtN,214,262.71,101.4,0.2954,214,259.29,99.878,0.29806,214,100.64,261,0.29673,cubic,0,10.87520125,H1a
mp-171,VNi3,VNi3,213.33,278.97,108.8,0.28205,213.26,243.36,92.898,0.30981,213.3,100.85,261.36,0.29578,tetragonal,0,8.437749253,H4
mp-1008556,AlGaN2,AlGaN2,184.33,301.06,122.6,0.2278,184.31,256.6,101.19,0.26796,184.32,111.89,279.19,0.24756,tetragonal,2.6691,4.630279983,H4
mp-11594,PrB2Ir3,PrB2Ir3,228.78,292.99,113.87,0.28655,221.21,212.06,79.113,0.34023,225,96.49,253.27,0.31239,hexagonal,0,14.54755101,H4
mp-866127,LuTaOs2,LuTaOs2,226,255.04,97.2,0.31192,226,250.06,95.039,0.31559,226,96.119,252.55,0.31375,cubic,0,17.77960656,H1a
mp-3467,SmB2Ru3,SmB2Ru3,214.33,260.52,100.4,0.29742,214.29,257.86,99.219,0.29944,214.31,99.81,259.19,0.29843,hexagonal,0,9.730324426,H4
mp-542909,Mn,Mn,263.89,230.6,85.133,0.35436,263.89,221.54,81.445,0.36008,263.89,83.289,226.08,0.35721,cubic,0,8.329259838,H1a
mp-12762,PrB6,PrB6,174.33,313.13,130.4,0.20064,174.33,252.51,100.32,0.25859,174.33,115.36,283.53,0.22893,cubic,0,4.797235899,H1a
mp-29618,NiP3W2,NiP3W2,208.11,278.98,109.27,0.27658,201.54,251.13,97.161,0.29232,204.82,103.21,265.11,0.28428,monoclinic,0,10.13375237,H4
mp-10853,Pr(BC)2,Pr(BC)2,180,308.46,127,0.21439,144.77,271.33,114.23,0.18764,162.39,120.61,290.04,0.20232,tetragonal,0,5.463420135,H4
mp-27608,Be4TeO7,Be4TeO7,183.33,282.46,113.6,0.24322,183.33,273.48,109.27,0.25138,183.33,111.44,277.98,0.24729,cubic,1.4809,4.084390269,H5
mp-864983,MnVRu2,MnVRu2,231,265.37,101.4,0.30853,231,230.05,86.224,0.33402,231,93.812,247.88,0.32115,cubic,0,9.371072619,H1a
mp-979267,Ta2FeMo,Ta2FeMo,218.67,268.41,103.6,0.29542,218.67,243.21,92.5,0.31463,218.67,98.05,255.9,0.30495,cubic,0,13.62004606,H1a
mp-20541,V2P,V2P,207.78,269.3,104.87,0.28399,207.1,256.69,99.231,0.29342,207.44,102.05,263.02,0.28868,orthorhombic,0,5.760240396,H4
mp-571044,CeSi2Ir3,CeSi2Ir3,179.89,285.48,115.53,0.2355,175.92,276.37,111.6,0.23817,177.91,113.57,280.93,0.23682,hexagonal,0,12.77152693,H4
mp-20932,NbNiP,NbNiP,218,259.31,99.6,0.30175,217.41,253.3,96.988,0.30583,217.71,98.294,256.31,0.30378,orthorhombic,0,7.729279814,H4
mp-2676,TaBe2,TaBe2,167.33,287.41,118.4,0.21373,167.33,286.3,117.83,0.21484,167.33,118.12,286.85,0.21429,cubic,0,9.521013724,H1a
mp-2455,As2Os,As2Os,168.89,297.95,123.53,0.20597,163.59,276.89,113.68,0.2179,166.24,118.6,287.45,0.21181,orthorhombic,0.756,10.78808765,H2
mp-864895,Be2NiRh,Be2NiRh,193.67,271.5,107.2,0.26635,193.67,271.36,107.13,0.26647,193.67,107.17,271.43,0.26641,cubic,0,7.571426986,H1a
mp-2364,PaO2,PaO2,203.33,270.49,105.8,0.27829,203.33,259.33,100.72,0.28743,203.33,103.26,264.93,0.28284,cubic,0,10.74766522,H1a
mp-861507,ScAlIr2,ScAlIr2,194,270.72,106.8,0.26742,194,270.68,106.78,0.26746,194,106.79,270.7,0.26744,cubic,0,12.42446553,H1a
mp-21476,Fe2N,Fe2N,244.22,240.78,90.133,0.33568,244.02,235.61,87.974,0.33908,244.12,89.053,238.2,0.33738,orthorhombic,0,7.399137892,H4
mp-4262,BeAlB,BeAlB,141.33,305.46,134,0.13978,141.33,293.36,127.1,0.15405,141.33,130.55,299.45,0.14687,cubic,0,2.543526562,H1a
mp-974458,Re3F,Re3F,268.44,233.27,86.067,0.35517,268.44,209.61,76.508,0.36986,268.44,81.287,221.5,0.36248,cubic,0,16.84076111,H1a
mp-570491,TaNi3,TaNi3,221.78,264.57,101.67,0.30117,221.77,241.09,91.404,0.31881,221.77,96.535,252.91,0.30993,tetragonal,0,12.03461453,H4
mp-9339,NbP,NbP,190,282.91,113,0.25183,186.3,264.51,104.69,0.26336,188.15,108.84,273.74,0.25751,tetragonal,0,6.386490773,H4
mp-2114,YN,YN,159.67,289.8,121,0.1975,159.67,289.7,120.95,0.1976,159.67,120.97,289.75,0.19755,cubic,0.2858,5.742757452,H5
mp-248,Fe2N,Fe2N,244.22,245.05,91.933,0.33277,243.69,230.06,85.674,0.34266,243.96,88.804,237.58,0.33769,trigonal,0,7.410072442,H2
mp-5853,LiSi2N3,LiSi2N3,158.89,292.43,122.53,0.19326,158.25,288.1,120.38,0.19658,158.57,121.46,290.27,0.19491,orthorhombic,5.0687,2.938002915,H2
mp-541196,Ce2Fe12P7,Ce2Fe12P7,180.67,280.93,113.2,0.24084,179.99,275.07,110.45,0.24528,180.33,111.82,278,0.24305,hexagonal,0,7.547584359,H4
mp-11560,TiSiRu,TiSiRu,203.11,267.97,104.67,0.28011,201.67,261.18,101.69,0.28415,202.39,103.18,264.58,0.28212,orthorhombic,0,6.828651328,H4
mp-10270,ScCo3C,ScCo3C,214.67,262.37,101.2,0.2963,214.67,251.11,96.209,0.30504,214.67,98.705,256.76,0.30065,cubic,0,7.010072784,H1a
mp-19784,In2Si2O7,In2Si2O7,228,258.07,98.4,0.31135,228,237.88,89.689,0.32611,228,94.045,248.03,0.31869,cubic,2.099,6.073292062,H2
mp-977107,NaRuO3,NaRuO3,250.67,234.9,87.4,0.34382,250.67,230.67,85.648,0.34663,250.67,86.524,232.79,0.34522,cubic,0,4.939095336,H1a
mp-542569,AlRu,AlRu,202.67,268.18,104.8,0.27946,202.67,260.35,101.23,0.28589,202.67,103.02,264.27,0.28267,cubic,0,7.832534965,H1a
mp-9923,VP2,VP2,153.44,299.11,127.27,0.17512,150.85,287.55,121.61,0.18229,152.14,124.44,293.34,0.17866,monoclinic,0,4.557132244,H4
mp-972220,TiPt3,TiPt3,234.33,251.54,95.2,0.3211,234.26,235.75,88.474,0.33228,234.3,91.837,243.67,0.32666,hexagonal,0,17.04747065,H4
mp-1203,TiO,TiO,195.67,276.22,109.2,0.26472,193.69,261.9,102.73,0.27465,194.68,105.97,269.08,0.26964,monoclinic,0,4.873947709,H4
mp-1018121,TiPd2,TiPd2,139.56,141.45,53.133,0.33107,139.54,417.59,208.54,0.001213,139.55,130.84,299.05,0.14283,tetragonal,0,9.199063316,H4
mp-22631,Co2N,Co2N,249.22,251.77,94.533,0.33163,240.62,220.31,81.756,0.3474,244.92,88.145,236.11,0.33933,orthorhombic,0,7.919345316,H4
mp-865655,TiNbTc2,TiNbTc2,222,257.2,98.4,0.30691,222,245.22,93.178,0.3159,222,95.789,251.23,0.31139,cubic,0,8.908701614,H1a
mp-1002222,TlN,TlN,186.33,275.74,110,0.25336,186.33,271.38,107.92,0.25727,186.33,108.96,273.56,0.25531,cubic,0,11.98082181,H1a
mp-505517,BaNb4O6,BaNb4O6,188,281.17,112.4,0.25074,182.57,266.97,106.25,0.25629,185.28,109.33,274.07,0.25347,tetragonal,0,6.721872033,H4
mp-973342,SbRh3,SbRh3,205,266.43,103.8,0.28339,205,257.35,99.687,0.29078,205,101.74,261.9,0.28707,cubic,0,11.42718526,H1a
mp-1009545,PaN,PaN,227,262.04,100.2,0.3076,227,232.83,87.591,0.32906,227,93.895,247.55,0.31824,cubic,0,13.37382397,H1a
mp-12678,TaMn2,TaMn2,242.78,238.56,89.267,0.33623,242.56,235.08,87.815,0.33847,242.67,88.541,236.82,0.33735,hexagonal,0,12.19993738,H4
mp-865482,VTc2Ge,VTc2Ge,239.67,246.58,92.8,0.32853,239.67,230.81,86.154,0.3395,239.67,89.477,238.72,0.33399,cubic,0,9.467982553,H1a
mp-867897,ScTaRu2,ScTaRu2,205.33,266.93,104,0.28333,205.33,255.29,98.737,0.29278,205.33,101.37,261.13,0.28804,cubic,0,11.00108315,H1a
mp-862287,BeAlRh2,BeAlRh2,198.67,266.08,104.2,0.27678,198.67,264.51,103.48,0.27809,198.67,103.84,265.3,0.27744,cubic,0,8.161792147,H1a
mp-1522,FeS2,FeS2,150.11,299.86,128.47,0.16707,149.65,286.25,121.17,0.1812,149.88,124.82,293.09,0.17408,orthorhombic,0.9777,4.893651631,H2
mp-569344,Zr(CoSi)2,Zr(CoSi)2,186.33,274.48,109.4,0.25449,186.17,271.17,107.84,0.25724,186.25,108.62,272.83,0.25586,tetragonal,0,6.473515061,H4
mp-615314,ScCoC2,ScCoC2,201.22,277.7,109.33,0.26999,200.19,249.64,96.596,0.29217,200.71,102.96,263.79,0.28095,tetragonal,0,5.227342236,H4
mp-741,HfO2,HfO2,229.44,260.27,99.267,0.31094,220.63,235.35,88.998,0.32222,225.04,94.132,247.84,0.31645,orthorhombic,3.3929,11.60339043,H2
mp-34993,LiAlO2,LiAlO2,160.78,312.51,132.87,0.17604,145.88,269.07,112.81,0.19259,153.33,122.84,290.84,0.18386,tetragonal,4.5235,3.412033572,H4
mp-865921,MgAlIr2,MgAlIr2,188.67,271.66,107.8,0.26002,188.67,270.08,107.05,0.26141,188.67,107.43,270.87,0.26072,cubic,0,12.67153958,H1a
mp-867293,LiCo2Si,LiCo2Si,169.67,283.81,116.2,0.22121,169.67,280.03,114.31,0.22492,169.67,115.25,281.92,0.22306,cubic,0,6.177891606,H1a
mp-27919,Ti8C5,Ti8C5,170.89,285.25,116.73,0.2218,169.4,278.04,113.35,0.22645,170.14,115.04,281.65,0.22411,trigonal,0,4.54143797,H2
mp-2254,Al2O3,Al2O3,202.11,266.47,104.07,0.28026,201.2,258.98,100.73,0.28547,201.65,102.4,262.73,0.28286,orthorhombic,4.8297,3.657878031,H2
mp-996162,Nb2AlC,Nb2AlC,173.22,282.75,115.13,0.22795,173.22,276.79,112.18,0.23368,173.22,113.66,279.78,0.23081,hexagonal,0,6.31322632,H4