Material_ID,Formula,pretty_formula,KV ,EV ,GV ,PV ,KR ,ER ,GR ,PR ,bulk,shear,young,poisson,csyst,gap,density,y_cla
mp-1018745,LaSbPd,LaSbPd,80.889,90.233,34.333,0.31408,72.866,85.978,32.984,0.30334,76.878,33.658,88.116,0.30897,hexagonal,0,7.923388122,H4
mp-10128,ThGe2,ThGe2,84.222,89.747,33.933,0.3224,83.284,77.283,28.722,0.34534,83.753,31.328,83.565,0.33371,tetragonal,0,9.006721984,H4
mp-9721,Ca3GeO,Ca3GeO,47.333,104.92,46.4,0.13057,47.333,104.91,46.395,0.1306,47.333,46.397,104.91,0.13059,cubic,0.7671,3.251301123,H5
mp-977110,NaSnPd2,NaSnPd2,46.333,106.37,47.6,0.11736,46.333,104.05,46.216,0.12571,46.333,46.908,105.22,0.12152,cubic,0,8.280665741,H1a
mp-12137,Ca(ZnSi)2,Ca(ZnSi)2,70.556,94.774,37.133,0.27613,69.922,89.665,34.855,0.28627,70.239,35.994,92.228,0.28116,tetragonal,0,4.104050672,H4
mp-1387,AlV3,AlV3,159,48.685,16.8,0.44897,159,9.6045,3.2231,0.48993,159,10.012,29.417,0.46916,cubic,0,5.367846693,H1a
mp-8883,GaAs,GaAs,60,99.783,40.8,0.22283,59.946,96.818,39.331,0.23082,59.973,40.065,98.305,0.22681,hexagonal,0.1925,5.054169861,H1a
mp-981375,HfMg3,HfMg3,66.778,95.965,38.067,0.26049,66.663,92.588,36.495,0.26852,66.72,37.281,94.282,0.26449,hexagonal,0,4.812948022,H4
mp-4368,SbPdSe,SbPdSe,84.667,84.311,31.6,0.33403,84.667,81.051,30.233,0.34045,84.667,30.916,82.685,0.33723,cubic,0,7.690997635,H1a
mp-1090,FeSe,FeSe,64,97.661,39.2,0.24567,63.977,94.01,37.451,0.2551,63.989,38.326,95.842,0.25037,hexagonal,0,7.095137702,H4
mp-863733,Pm2RuAu,Pm2RuAu,98.333,73.2,26.6,0.37593,98.333,73.149,26.58,0.37602,98.333,26.59,73.174,0.37598,cubic,0,10.50680276,H1a
mp-20067,Na5OsO6,Na5OsO6,65.444,97.332,38.867,0.25213,65.137,92.663,36.686,0.2629,65.291,37.776,95.006,0.25748,monoclinic,0,4.463387681,H4
mp-16266,CaZnSi,CaZnSi,59.222,107.59,44.933,0.19721,49.87,94.533,39.919,0.18407,54.546,42.426,101.07,0.19117,hexagonal,0,3.460967496,H4
mp-20595,Eu(AlSi)2,Eu(AlSi)2,61.889,100.62,40.933,0.22904,59.862,94.545,38.223,0.23677,60.875,39.578,97.586,0.23283,trigonal,0,4.034206977,H2
mp-999318,NiBi,NiBi,87.778,85.757,32.067,0.33717,87.767,74.983,27.616,0.35761,87.773,29.841,80.411,0.34731,hexagonal,0,11.13204762,H4
mp-560203,SiO2,SiO2,57.556,105.83,44.333,0.19355,52.321,95.877,40.13,0.19459,54.938,42.231,100.85,0.19404,orthorhombic,5.4814,2.624024586,H2
mp-546350,TmBi2BrO4,TmBi2BrO4,75.556,107.01,42.333,0.26394,59.555,79.933,31.314,0.2763,67.555,36.824,93.486,0.26936,tetragonal,1.4283,8.659404984,H1a
mp-551250,ErBi2IO4,ErBi2IO4,73.222,104.79,41.533,0.26149,59.996,83.305,32.834,0.26858,66.609,37.184,94.05,0.26467,tetragonal,1.4006,8.578807971,H1a
mvc-7194,BaYCuSbO5,BaYCuSbO5,104.56,104.38,39.133,0.33362,48.883,70.081,27.787,0.26106,76.719,33.46,87.639,0.30961,tetragonal,0,6.060317285,H4
mp-9075,CdCuF4,CdCuF4,86.333,83.537,31.2,0.33873,84.569,80.132,29.854,0.34208,85.451,30.527,81.836,0.34038,tetragonal,0.7622,5.418019254,H1a
mp-644246,EuH3Pd,EuH3Pd,83.667,84.2,31.6,0.33227,83.667,81.854,30.612,0.33694,83.667,31.106,83.029,0.3346,cubic,0,7.723010888,H1a
mp-309,ThAg2,ThAg2,72.778,91.975,35.667,0.28937,70.229,89.944,34.956,0.28655,71.504,35.311,90.96,0.28798,hexagonal,0,10.61682886,H4
mp-10256,VTe,VTe,62.667,102.99,42,0.22609,60.874,90.51,36.14,0.25219,61.77,39.07,96.801,0.23881,hexagonal,0,6.681206278,H4
mp-6394,RbTiAsO5,RbTiAsO5,65.444,95.233,37.867,0.25747,65.354,94.004,37.295,0.26027,65.399,37.581,94.619,0.25887,orthorhombic,3.056,3.832231201,H2
mp-5193,SrZrS3,SrZrS3,70.444,94.607,37.067,0.27617,69.14,89.153,34.688,0.28509,69.792,35.877,91.886,0.28057,orthorhombic,1.7233,3.802340687,H2
mp-16548,ZrTiF6,ZrTiF6,84.667,110.32,43,0.28283,84.667,51.364,18.359,0.39889,84.667,30.679,82.12,0.33835,cubic,0,2.994313091,H1a
mp-978523,Sc2ZnCu,Sc2ZnCu,73.667,100.32,39.4,0.27304,73.667,77.936,29.439,0.32367,73.667,34.42,89.344,0.29786,cubic,0,5.023210948,H1a
mp-336,SmCo2,SmCo2,115.67,62.065,22,0.41057,113.75,60.093,21.28,0.41195,114.71,21.64,61.079,0.41125,cubic,0,9.308683044,H1a
mp-862556,ScSiPd2,ScSiPd2,138.33,43.989,15.2,0.447,138.33,43.808,15.135,0.44722,138.33,15.168,43.898,0.44711,cubic,0,7.525624043,H1a
mp-37,Th,Th,56.111,106.27,44.867,0.18433,56.039,93.174,38.096,0.22289,56.075,41.481,99.828,0.20329,cubic,0,12.02989619,H1a
mp-1017626,LiCaF3,LiCaF3,85,81.964,30.6,0.33929,85,81.672,30.478,0.33986,85,30.539,81.818,0.33957,cubic,6.5265,3.245990518,H2
mp-559598,LiScF4,LiScF4,85.778,88.375,33.267,0.32829,85.774,73.779,27.192,0.35664,85.776,30.229,81.154,0.34231,tetragonal,6.1268,3.262258289,H4
mp-22095,Ga2Pt,Ga2Pt,113.33,67.776,24.2,0.40033,113.33,55.875,19.704,0.41783,113.33,21.952,61.862,0.40903,cubic,0,10.27794086,H1a
mp-546011,YZnAsO,YZnAsO,76.667,99.598,38.8,0.28348,73.121,76.795,28.98,0.32496,74.894,33.89,88.345,0.3034,tetragonal,1.2017,5.751668055,H1a
mp-1001835,LiB,LiB,81.778,143.59,59.467,0.20735,56.812,34.592,12.367,0.39852,69.295,35.917,91.877,0.27902,hexagonal,0,1.356921364,H4
mp-20459,TiPbO3,TiPbO3,81.333,116.11,46,0.26207,43.949,75.371,31.038,0.21417,62.641,38.519,95.9,0.24484,tetragonal,1.9569,7.295112166,H1a
mp-13308,HoGeAu,HoGeAu,83,84.596,31.8,0.33013,83,81.303,30.411,0.33674,83,31.105,82.954,0.33343,cubic,0.2175,10.41004676,H5
mp-79,Zn,Zn,74.333,103.9,41,0.26705,58.551,83.305,32.982,0.26287,66.442,36.991,93.603,0.2652,hexagonal,0,6.981484851,H4
mp-2404,CaAl2,CaAl2,56,99.645,41.4,0.20344,56,99.619,41.387,0.20351,56,41.393,99.632,0.20348,cubic,0,2.425284826,H1a
mp-12266,CaCuF4,CaCuF4,77,88,33.6,0.30952,76.363,86.185,32.847,0.3119,76.682,33.224,87.093,0.3107,tetragonal,0.7949,3.810530922,H1a
mp-676058,V3NiS6,V3NiS6,70.111,102.23,40.667,0.25697,70.085,79.921,30.505,0.30994,70.098,35.586,91.307,0.28291,trigonal,0,4.276815784,H2
mp-7977,CsSmO2,CsSmO2,70.556,103.32,41.133,0.25593,68.613,79.387,30.366,0.30716,69.584,35.75,91.568,0.28068,hexagonal,2.8983,6.547706538,H1b
mp-973653,Lu2ZnAg,Lu2ZnAg,87.333,86.978,32.6,0.33401,87.333,72.64,26.679,0.36137,87.333,29.639,79.881,0.34755,cubic,0,9.839916913,H1a
mp-2688,HoGa3,HoGa3,66,93.949,37.2,0.26276,66,93.546,37.01,0.26377,66,37.105,93.747,0.26326,cubic,0,8.016541154,H1a
mp-3522,MgCuSb,MgCuSb,67.667,93.888,37,0.26875,67.667,91.544,35.913,0.27452,67.667,36.457,92.718,0.27163,cubic,0,5.728514684,H1a
mp-2694,LaAl2,LaAl2,54.667,101.07,42.4,0.19186,54.667,99.224,41.43,0.19749,54.667,41.915,100.15,0.19467,cubic,0,4.744791243,H1a
mp-15179,Pr2S3,Pr2S3,73,90.531,35,0.29331,72.289,88.437,34.117,0.2961,72.644,34.558,89.485,0.2947,orthorhombic,0.7775,5.135388981,H2
mp-546621,ErBi2BrO4,ErBi2BrO4,75.111,105.92,41.867,0.26497,59.441,79.752,31.242,0.27638,67.276,36.554,92.846,0.26999,tetragonal,1.4237,8.576980871,H1a
mp-19946,YInCu2,YInCu2,81.667,89.57,34,0.3172,81.667,77.378,28.828,0.34209,81.667,31.414,83.531,0.32953,cubic,0,7.49270592,H1a
mp-21345,LaGe,LaGe,64.111,97.413,39.067,0.24676,63.826,92.092,36.559,0.25952,63.968,37.813,94.765,0.25309,orthorhombic,0,6.496552365,H4
mp-31510,NbCuTe2,NbCuTe2,68.111,96.266,38.067,0.26444,65.629,89.676,35.243,0.27227,66.87,36.655,92.976,0.26827,monoclinic,0,7.503943034,H4
mp-20563,Ba(CoAs)2,Ba(CoAs)2,69.333,95.961,37.8,0.26932,69.316,86.76,33.591,0.29139,69.325,35.696,91.4,0.28026,tetragonal,0,6.678676709,H4
mp-12557,SrCuAs,SrCuAs,58,101.5,42,0.20833,54.624,96.624,40.087,0.20519,56.312,41.043,99.063,0.20681,hexagonal,0.0046,5.509455926,H1a
mp-862702,Sc2AgHg,Sc2AgHg,78.333,95.453,36.8,0.29691,78.333,75.406,28.146,0.33956,78.333,32.473,85.591,0.31789,cubic,0,7.809966849,H1a
mp-932,ScGa3,ScGa3,72.667,89.582,34.6,0.29454,72.667,88.95,34.318,0.29599,72.667,34.459,89.266,0.29526,cubic,0,6.026909987,H1a
mp-557938,HfVF6,HfVF6,75.333,114.25,45.8,0.24724,75.333,58.185,21.216,0.37127,75.333,33.508,87.544,0.30632,cubic,3.2301,4.077358198,H2
mp-972916,MgCu,MgCu,68.667,106.31,42.8,0.24196,68.593,76.407,29.067,0.31435,68.63,35.933,91.782,0.27711,orthorhombic,0,4.665666637,H4
mp-435,ThSn3,ThSn3,101.33,70.324,25.4,0.38434,101.33,69.248,24.979,0.38611,101.33,25.19,69.786,0.38522,cubic,0,9.020786585,H1a
mp-712,YCu,YCu,70,90.88,35.4,0.28362,70,90.846,35.385,0.2837,70,35.392,90.863,0.28366,cubic,0,6.011620357,H1a
mp-349,Yb3Si5,Yb3Si5,53.333,100.93,42.6,0.1846,53.333,100.13,42.172,0.18711,53.333,42.386,100.53,0.18585,hexagonal,0,6.249883488,H4
mp-551101,HoBi2IO4,HoBi2IO4,72.222,104.13,41.333,0.25969,58.996,82.972,32.779,0.2656,65.609,37.056,93.556,0.26234,tetragonal,1.4168,8.55600061,H1a
mp-10850,SbTePd,SbTePd,80.667,85.256,32.2,0.32385,80.667,82.521,31.034,0.3295,80.667,31.617,83.891,0.32667,cubic,0,8.067124667,H1a
mp-21391,InAs,InAs,63.333,107.18,44,0.21795,63.333,81.86,31.862,0.28458,63.333,37.931,94.857,0.25038,cubic,0,6.613324516,H1a
mp-768864,KNdO2,KNdO2,67.444,105.3,42.467,0.23979,63.581,81.44,31.651,0.28652,65.513,37.059,93.539,0.26203,hexagonal,3.8089,4.915860794,H1b
mp-12630,MgSeO4,MgSeO4,63.333,101.17,41,0.23377,54.924,93.374,38.373,0.21666,59.129,39.687,97.292,0.22576,orthorhombic,2.9057,3.624469513,H2
mp-10677,CaPAu,CaPAu,78.444,91.557,35.067,0.30547,68.858,85.291,32.968,0.29356,73.651,34.017,88.436,0.29988,hexagonal,0,6.956807579,H4
mp-7935,USbTe,USbTe,65.889,100.08,40.133,0.24685,64.992,86.909,34.025,0.27713,65.44,37.079,93.566,0.2617,tetragonal,0,9.554849385,H4
mp-137,Ge,Ge,54.444,103.74,43.867,0.18243,51.369,97.531,41.202,0.18356,52.907,42.535,100.64,0.18298,tetragonal,0.8732,5.608375747,H1a
mp-3726,Li2GaPt,Li2GaPt,85,102.83,39.6,0.29837,85,57.486,20.719,0.38728,85,30.16,80.909,0.34135,cubic,0,8.263641087,H1a
mp-6504,BaMg(CO3)2,BaMg(CO3)2,82.111,101.16,39.067,0.29467,70.669,71.881,27.013,0.33048,76.39,33.04,86.63,0.31099,trigonal,4.132,3.689017966,H2
mp-867128,Sm2PdRu,Sm2PdRu,97,72.612,26.4,0.37524,97,72.59,26.391,0.37528,97,26.395,72.601,0.37526,cubic,0,9.612086232,H1a
mp-969,YbAl2,YbAl2,55.667,99.141,41.2,0.20317,55.667,99.096,41.176,0.20331,55.667,41.188,99.119,0.20324,cubic,0,5.949727005,H1a
mp-978290,Mg3Os,Mg3Os,85.333,114.82,45,0.27575,85.25,42.557,15.019,0.4168,85.292,30.009,80.578,0.34254,tetragonal,0,6.318773478,H4
mp-370,CdS,CdS,73,88.742,34.2,0.29739,73,88.602,34.138,0.29771,73,34.169,88.672,0.29755,cubic,0.3683,5.74752285,H5
mp-30339,ErAg2,ErAg2,80.444,91.396,34.867,0.31064,80.049,76.234,28.419,0.34128,80.247,31.643,83.9,0.32575,tetragonal,0,9.940859537,H4
mp-4508,ErInPd,ErInPd,90.889,82.376,30.533,0.34894,90.441,71.203,26.009,0.36879,90.665,28.271,76.828,0.35877,hexagonal,0,9.866293477,H4
mp-571330,Nd3AlC,Nd3AlC,63.333,95,38,0.25,63.333,94.228,37.63,0.25203,63.333,37.815,94.614,0.25101,cubic,0,5.904594406,H1a
mp-1734,CaZn5,CaZn5,61.778,97.613,39.467,0.23665,60.656,94.021,37.861,0.24166,61.217,38.664,95.819,0.23913,hexagonal,0,5.681811989,H4
mp-961665,MgScGa,MgScGa,59,97.08,39.6,0.22576,59,97.053,39.586,0.22584,59,39.593,97.067,0.2258,cubic,0.0777,3.395852187,H5
mp-971922,DyYAl2,DyYAl2,66.333,112.88,46.4,0.21638,66.333,70.721,26.742,0.32231,66.333,36.571,92.68,0.26714,cubic,0,5.429797414,H1a
mp-568349,Cr(FeSe2)2,Cr(FeSe2)2,69.889,95.504,37.533,0.27225,67.73,86.736,33.708,0.28657,68.81,35.621,91.136,0.27925,monoclinic,0,6.386120318,H4
mp-768240,BaY2F8,BaY2F8,80.444,95.492,36.667,0.30216,78.267,72.694,27.02,0.3452,79.356,31.843,84.259,0.32303,monoclinic,7.2732,4.813394363,H2
mp-19330,CaMoO4,CaMoO4,75.444,89.283,34.267,0.30276,74.621,84.753,32.331,0.3107,75.033,33.299,87.023,0.3067,tetragonal,3.5007,4.061863133,H4
mp-976260,LiTm2Au,LiTm2Au,68.333,92.301,36.2,0.27488,68.333,90.076,35.178,0.2803,68.333,35.689,91.191,0.27758,cubic,0,9.965529893,H1a
mp-1018144,LaH3,LaH3,92.667,124.97,49,0.27523,92.667,17.534,5.9701,0.46846,92.667,27.485,75.037,0.36504,cubic,0,5.441679709,H1a
mp-23121,Sr5P3ClO12,Sr5P3ClO12,67.667,93.458,36.8,0.26981,64.158,91.832,36.399,0.26144,65.912,36.6,92.65,0.26572,hexagonal,5.0783,3.970677505,H1b
mp-560902,MnF2,MnF2,86.444,92.203,34.867,0.32223,84.063,67.582,24.737,0.36601,85.253,29.802,80.075,0.34346,tetragonal,2.5363,3.744000315,H4
mp-1016882,CdOsO3,CdOsO3,135.33,73.306,26,0.40972,135.33,13.841,4.6667,0.48295,135.33,15.333,44.326,0.44541,cubic,0,9.498405606,H1a
mp-21765,Pd17Se15,Pd17Se15,97.333,73.137,26.6,0.37476,97.333,70.127,25.41,0.37992,97.333,26.005,71.635,0.37734,cubic,0,7.939871563,H1a
mp-867267,LiHo2Pt,LiHo2Pt,79,84.114,31.8,0.32254,79,84.044,31.77,0.32269,79,31.785,84.079,0.32262,cubic,0,10.26622763,H1a
mp-19412,VAg3O4,VAg3O4,72,10.042,3.4,0.47675,72,149.89,65,0.15302,72,34.2,88.576,0.29496,tetragonal,0.5961,5.694009575,H1a
mp-22716,LiCu2P,LiCu2P,82.333,97.445,37.4,0.30274,78.149,68.448,25.276,0.35402,80.241,31.338,83.184,0.32722,trigonal,0,5.219770834,H2
mp-862337,Sc2InAg,Sc2InAg,74.667,96.587,37.6,0.2844,74.667,76.754,28.883,0.32868,74.667,33.242,86.838,0.30616,cubic,0,5.986711253,H1a
mp-696572,TiP,TiP,99.222,105.63,39.933,0.32257,98.417,31.697,10.958,0.44632,98.819,25.446,70.303,0.38143,hexagonal,0,3.462618394,H4
mp-981250,SmPuO3,SmPuO3,122.33,71.268,25.4,0.40291,122.33,35.091,12.082,0.45219,122.33,18.741,53.492,0.42712,cubic,0,8.901592941,H1a
mp-6408,ZnCu2GeS4,ZnCu2GeS4,71.222,94.034,36.733,0.27995,71.195,83.638,32.065,0.3042,71.209,34.399,88.885,0.29196,tetragonal,0.3483,4.288661969,H1a
mp-81,Au,Au,137.33,55.583,19.4,0.43255,137.33,29.093,9.9315,0.46469,137.33,14.666,42.485,0.44844,cubic,0,18.02565607,H1a
mp-7591,GeAs,GeAs,65.667,107.1,43.6,0.22818,59.408,81.01,31.825,0.27273,62.537,37.713,94.202,0.24894,tetragonal,0,5.804404727,H4
mp-983583,Er2ZnCu,Er2ZnCu,74.667,88.558,34,0.30233,74.667,84.592,32.258,0.31118,74.667,33.129,86.582,0.30674,cubic,0,9.018390706,H1a
mp-973142,ScZn2Pd,ScZn2Pd,98.667,124.79,48.4,0.2892,98.667,7.3014,2.454,0.48767,98.667,25.427,70.247,0.38134,cubic,0,7.322709385,H1a
mp-715493,V4O7,V4O7,80.778,99.591,38.467,0.29452,65.958,75.108,28.663,0.31021,73.368,33.565,87.37,0.30152,triclinic,1.0063,4.020495502,H5
mp-350,Zr5Te4,Zr5Te4,66.889,94.431,37.333,0.26471,66.861,88.47,34.573,0.27947,66.875,35.953,91.468,0.27204,tetragonal,0,7.002343435,H4
mp-15619,GaAs,GaAs,55.667,97.98,40.6,0.20665,55.667,97.968,40.594,0.20668,55.667,40.597,97.974,0.20666,cubic,0,5.476443343,H1a
mp-7939,NaNbSe2,NaNbSe2,61,96.038,38.8,0.2376,60.606,94.072,37.893,0.2413,60.803,38.346,95.056,0.23944,hexagonal,0.5562,5.440617594,H1a
mp-971951,Zr3Pt,Zr3Pt,137.33,42.301,14.6,0.44866,137.33,42.254,14.583,0.44872,137.33,14.592,42.278,0.44869,cubic,0,9.447990672,H1a
mp-20363,LiGa2Pt,LiGa2Pt,98.333,105.21,39.8,0.32168,98.333,32.288,11.17,0.44527,98.333,25.485,70.376,0.38072,cubic,0,9.652123688,H1a
mp-1025478,TbAu3,TbAu3,95.889,77.876,28.533,0.36464,93.44,67.818,24.589,0.37903,94.664,26.561,72.868,0.37171,orthorhombic,0,15.21501734,H4
mp-10521,Y(AlGe)2,Y(AlGe)2,71.444,97.84,38.467,0.27176,71.262,78.856,29.97,0.31557,71.353,34.219,88.507,0.29327,trigonal,0,4.532040711,H2
mp-865982,TmCdPd2,TmCdPd2,102.67,85.979,31.6,0.36042,102.67,47.565,16.715,0.42278,102.67,24.158,67.202,0.39091,cubic,0,10.72609067,H1a
mp-2961,MgSiP2,MgSiP2,73,96.708,37.8,0.27921,70.701,79.16,30.136,0.31339,71.851,33.968,88.031,0.2958,tetragonal,1.3714,2.241356923,H1a
mp-769253,Dy2SeO2,Dy2SeO2,95.111,109.53,41.867,0.30807,93.839,32.378,11.223,0.44249,94.475,26.545,72.815,0.37155,tetragonal,2.1118,8.083237974,H4
mp-3173,CaAlSi,CaAlSi,62.667,100.17,40.6,0.2336,51.993,93.23,38.809,0.20114,57.33,39.705,96.773,0.21867,hexagonal,0,2.355990774,H4
mp-1002221,ErH,ErH,61,100.09,40.8,0.22654,61,89.101,35.455,0.25655,61,38.127,94.66,0.24137,cubic,0,9.666433692,H1a
mp-971631,GaP,GaP,75.111,106.35,42.067,0.26402,74.679,64.185,23.654,0.35675,74.895,32.86,86.003,0.30862,tetragonal,0,4.83935788,H4
mp-21505,YAgPb,YAgPb,66,93.523,37,0.26383,66,89.708,35.222,0.27346,66,36.111,91.623,0.26863,hexagonal,0,8.864151158,H4
mp-570744,Si3As4,Si3As4,59,98.279,40.2,0.22238,59,93.212,37.686,0.23669,59,38.943,95.76,0.22949,cubic,0.4114,4.117944328,H5
mp-7498,Ti5Te4,Ti5Te4,66.556,98.58,39.333,0.25314,66.098,83.993,32.601,0.28821,66.327,35.967,91.383,0.27037,tetragonal,0,6.385807273,H4
mp-979715,YHoAl2,YHoAl2,65,113.23,46.8,0.20968,65,69.039,26.092,0.32298,65,36.446,92.121,0.26379,cubic,0,5.508624981,H1a
mp-977554,MgScAg2,MgScAg2,86.333,89.695,33.8,0.32684,86.333,66.374,24.191,0.37186,86.333,28.996,78.229,0.34898,cubic,0,6.093832314,H1a
mp-20389,Na2CdPb,Na2CdPb,97.667,2.9898,1,0.4949,97.667,128.13,50,0.28134,97.667,25.5,70.375,0.37991,cubic,0,5.747868444,H1a
mp-1013555,Sr3AsN,Sr3AsN,57,97.645,40.2,0.21449,57,95.773,39.252,0.21996,57,39.726,96.711,0.21722,cubic,0.4218,4.348044002,H5
mp-570428,Sc3In,Sc3In,61.667,94.987,38.2,0.24328,61.667,92.988,37.235,0.24868,61.667,37.717,93.99,0.24597,cubic,0,4.451605958,H1a
mp-568436,Sr7GeN6,Sr7GeN6,60.778,95.704,38.667,0.23756,60.456,93.369,37.57,0.2426,60.617,38.118,94.539,0.24006,orthorhombic,1.127,4.741896475,H2
mp-867143,SmGa3,SmGa3,68.778,104,41.667,0.24798,52.975,84.668,34.317,0.23362,60.876,37.992,94.348,0.24169,hexagonal,0,7.360697783,H4
mp-35841,Li2CuGe,Li2CuGe,61.333,108.86,45.2,0.20419,61.333,78.249,30.391,0.28737,61.333,37.796,94.065,0.24439,cubic,0,4.713982567,H1a
mp-2520,TmSb,TmSb,61.667,101.09,41.2,0.22679,61.667,86.375,34.098,0.26655,61.667,37.649,93.849,0.24636,cubic,0,8.353306529,H1a
mp-20941,UIn3,UIn3,64,93.487,37.2,0.25654,64,91.387,36.207,0.26201,64,36.703,92.439,0.25927,cubic,0,9.591884574,H1a
mp-11550,Sc2Pt,Sc2Pt,92.667,77.303,28.4,0.36097,89.045,72.294,26.487,0.36469,90.856,27.444,74.8,0.36279,orthorhombic,0,7.658756233,H4
mp-3953,CaCO3,CaCO3,78.778,93.874,36.067,0.3014,72.835,75.853,28.593,0.32643,75.807,32.33,84.917,0.3133,trigonal,5.05,2.607924098,H2
mp-574438,ThRu2,ThRu2,168.67,22.463,7.6,0.4778,168.67,13.855,4.661,0.48631,168.67,6.1305,18.171,0.48204,cubic,0,12.70895753,H1a
mp-561242,TaAgS3,TaAgS3,82.444,111.78,43.867,0.27404,70.906,55.138,20.118,0.37039,76.675,31.992,84.258,0.31685,orthorhombic,0.004,6.74251415,H2
mp-978267,Mg2ZnRh,Mg2ZnRh,87.333,110.37,42.8,0.28937,87.333,40.371,14.186,0.42296,87.333,28.493,77.094,0.35287,cubic,0,5.574736575,H1a
mp-7191,Sr3GaN3,Sr3GaN3,61.222,94.32,37.933,0.24323,60.673,93.859,37.78,0.24217,60.948,37.857,94.089,0.2427,hexagonal,0.5794,4.533980497,H1a
mp-10185,Mg3ZnC,Mg3ZnC,70,89.559,34.8,0.28676,70,87.5,33.871,0.29167,70,34.335,88.531,0.28921,cubic,0,2.916752512,H1a
mp-18965,BaCoO3,BaCoO3,86.667,106.69,41.2,0.29482,85.518,46.593,16.532,0.40919,86.092,28.866,77.892,0.34921,hexagonal,0,5.941328899,H4
mp-21236,BaPPt,BaPPt,79.333,84.622,32,0.32222,79.333,80.252,30.138,0.3314,79.333,31.069,82.444,0.3268,cubic,0,8.304913027,H1a
mp-6625,LaAgSO,LaAgSO,75.333,90.92,35,0.29885,69.673,82.822,31.808,0.30188,72.503,33.404,86.871,0.3003,tetragonal,1.3669,6.425297428,H1a
mp-1210,ThCd2,ThCd2,66.222,91.718,36.133,0.26917,65.26,90.53,35.676,0.26879,65.741,35.905,91.124,0.26898,hexagonal,0,9.777058231,H4
mp-867290,TbTe,TbTe,59.889,98.817,40.333,0.225,57.879,91.57,37.033,0.23632,58.884,38.683,95.202,0.23054,hexagonal,0,7.965151155,H4
mp-35397,Bi2WO8,Bi2WO8,69,95.46,37.6,0.26942,62.08,87.03,34.363,0.26635,65.54,35.981,91.246,0.26796,triclinic,0.238,7.645855598,H5
mp-2183,ThSe,ThSe,98.333,117.58,45.2,0.30071,98.333,14.487,4.9095,0.47545,98.333,25.055,69.28,0.38258,cubic,0,9.820607154,H1a
mp-978265,Mg2ZnPd,Mg2ZnPd,68.667,103,41.2,0.25,68.667,74.628,28.293,0.31886,68.667,34.746,89.194,0.28351,cubic,0,5.416463353,H1a
mp-865793,LiSc2Rh,LiSc2Rh,85,79.082,29.4,0.34494,85,77.735,28.842,0.34758,85,29.121,78.409,0.34626,cubic,0,4.670742426,H1a
mp-546266,DyBi2IO4,DyBi2IO4,71.889,101.94,40.333,0.26367,58.515,80.623,31.732,0.27036,65.202,36.033,91.283,0.26667,tetragonal,1.3936,8.475085633,H1a
mp-8253,Na5ReO6,Na5ReO6,65.222,96.999,38.733,0.25213,65.169,85.402,33.319,0.28159,65.196,36.026,91.267,0.26668,monoclinic,2.2944,4.398163406,H2
mp-972984,HoErAl2,HoErAl2,67,113.88,46.8,0.21671,67,63.993,23.864,0.34081,67,35.332,90.149,0.27575,cubic,0,7.04707599,H1a
mp-3700,LiYF4,LiYF4,79.111,87.531,33.267,0.31559,77.413,78.196,29.361,0.33165,78.262,31.314,82.886,0.32349,tetragonal,7.8367,3.808361798,H4
mp-3345,Cu3AsS4,Cu3AsS4,73.222,88.178,33.933,0.29929,72.997,84.325,32.248,0.30747,73.11,33.09,86.258,0.30336,orthorhombic,0.0392,4.403425515,H2
mp-2186,NpAs,NpAs,75,112.5,45,0.25,75,54.645,19.82,0.37857,75,32.41,84.988,0.31114,cubic,0,10.50825288,H1a