Material_ID,Formula,pretty_formula,KV ,EV ,GV ,PV ,KR ,ER ,GR ,PR ,bulk,shear,young,poisson,csyst,gap,density,y_cla
mp-980941,Ti3N,Ti3N,124.33,4.1843,1.4,0.49439,124.33,292.85,132.22,0.10743,124.33,66.811,169.99,0.27214,cubic,0,5.179779883,H1a
mp-862290,LiFeRh2,LiFeRh2,142.67,172.45,66.4,0.29854,142.67,143.41,53.813,0.33247,142.67,60.106,158.11,0.31529,cubic,0,8.524074089,H1a
mp-14142,TiZnO3,TiZnO3,173.44,164.92,61.467,0.34153,167.41,112.99,40.717,0.38751,170.43,51.092,139.35,0.36372,trigonal,3.0493,5.007411138,H2
mp-30156,LiMgN,LiMgN,95.556,192.25,82.533,0.16468,95.425,179.95,75.884,0.1857,95.49,79.209,186.15,0.17509,orthorhombic,2.2078,2.356174606,H2
mp-18906,CrPO4,CrPO4,110.78,192,79.267,0.21113,92.322,173.86,73.289,0.18613,101.55,76.278,183.01,0.19964,orthorhombic,2.3859,3.740038387,H2
mp-2914,LaSi3Ir,LaSi3Ir,125.44,170.77,67.067,0.27312,123.96,168.32,66.077,0.27368,124.7,66.572,169.55,0.2734,tetragonal,0,7.535183278,H4
mp-18717,SrVO3,SrVO3,194.67,177.41,65.8,0.34811,194.67,63.108,21.822,0.44597,194.67,43.811,122.26,0.39532,cubic,0,5.218858073,H1a
mp-1025420,SmSi2Ni,SmSi2Ni,122.22,175.77,69.733,0.26031,120.26,167.35,65.986,0.26806,121.24,67.86,171.57,0.26414,orthorhombic,0,6.479779868,H4
mp-4210,Sm2CuO4,Sm2CuO4,147.44,176.07,67.667,0.30098,142.6,136.07,50.734,0.34097,145.02,59.2,156.33,0.32034,tetragonal,0,7.575626216,H4
mp-2877,Nd(CuSi)2,Nd(CuSi)2,104.33,184.23,76.4,0.2057,104.31,178.33,73.384,0.21506,104.32,74.892,181.29,0.21036,tetragonal,0,6.597292114,H4
mp-1025346,GaAsPd5,GaAsPd5,144,160.36,61,0.3144,143.99,153.53,58.053,0.3223,144,59.526,156.95,0.31834,tetragonal,0,10.1041092,H4
mp-4104,HoPO4,HoPO4,143.56,189.3,73.933,0.28022,134.54,129.87,48.49,0.33912,139.05,61.212,160.14,0.30805,tetragonal,5.912,5.939537989,H4
mp-924130,TiNiSn,TiNiSn,122.33,170.83,67.4,0.26727,122.33,170.56,67.274,0.26763,122.33,67.337,170.69,0.26745,cubic,0.4527,7.230097039,H5
mp-5452,Ce(CuSi)2,Ce(CuSi)2,101.11,186.26,78.067,0.19297,101.08,179.37,74.473,0.20424,101.09,76.27,182.83,0.19858,tetragonal,0,6.57125746,H4
mp-5244,Ti2SbP,Ti2SbP,114.22,185.27,75.333,0.22967,113.99,165.49,65.775,0.25804,114.11,70.554,175.49,0.24367,hexagonal,0,5.68396635,H4
mp-2652,Y2O3,Y2O3,137.67,162.18,62.2,0.30366,137.67,159.5,61.02,0.30691,137.67,61.61,160.84,0.30528,cubic,4.1062,4.892007864,H2
mp-16488,Al9Co2,Al9Co2,106.56,182.11,74.933,0.21515,105.32,178.13,73.115,0.21813,105.94,74.024,180.12,0.21663,monoclinic,0,3.608519273,H4
mp-20896,TmInNi4,TmInNi4,149.33,156.4,59,0.32544,149.33,149.86,56.222,0.33275,149.33,57.611,153.14,0.32908,cubic,0,10.04338879,H1a
mp-570845,Zn(GaNi)3,Zn(GaNi)3,132.33,166.23,64.4,0.29064,132.33,162.12,62.554,0.29582,132.33,63.477,164.18,0.29322,cubic,0,7.951690558,H1a
mp-862814,PaSiTc2,PaSiTc2,206.33,118.52,42.2,0.40426,206.33,108.11,38.264,0.41268,206.33,40.232,113.33,0.40846,cubic,0,11.14949443,H1a
mp-540,ScFe2,ScFe2,128,168.96,66,0.28,128,164.63,64.024,0.28564,128,65.012,166.8,0.28282,cubic,0,6.150369242,H1a
mp-571500,Ho(FeB)2,Ho(FeB)2,100.33,186.22,78.2,0.19066,100.12,179.81,74.876,0.20069,100.23,76.538,183.03,0.19565,tetragonal,0,8.189446025,H4
mp-1099,NiGe,NiGe,136.56,179.21,69.933,0.28128,135.26,143.55,54.247,0.32312,135.91,62.09,161.65,0.30176,orthorhombic,0,7.985962658,H4
mp-1018101,AlCo3,AlCo3,186.67,167.95,62.2,0.35005,186.67,83.905,29.438,0.42509,186.67,45.819,127.06,0.38655,cubic,0,7.40634371,H1a
mp-37620,LiMnO2,LiMnO2,118.33,183.3,73.8,0.24184,112.71,165.14,65.749,0.25581,115.52,69.775,174.24,0.24862,tetragonal,0,4.158526931,H4
mp-21422,YCoC,YCoC,145.89,176.87,68.133,0.29794,138.6,137.29,51.422,0.33492,142.25,59.777,157.3,0.3157,tetragonal,0,5.808143805,H4
mp-20618,Y2Co3Si5,Y2Co3Si5,140.44,174.46,67.467,0.29296,138.9,143.09,53.863,0.3283,139.67,60.665,158.98,0.3103,orthorhombic,0,5.528205475,H4
mp-980,USi2,USi2,130.78,184.36,72.867,0.26505,127.23,146.64,56.06,0.3079,129,64.463,165.78,0.28582,hexagonal,0,9.060034486,H4
mp-2605,CaO,CaO,105.33,179.88,74,0.21538,105.33,179.84,73.98,0.21545,105.33,73.99,179.86,0.21542,cubic,3.6919,3.286687964,H2
mp-12736,TbB2Rh2C,TbB2Rh2C,199.33,148.58,54,0.37577,199.21,85.958,30.096,0.42808,199.27,42.048,117.85,0.40143,tetragonal,0,8.81342196,H4
mp-256,LaN,LaN,122,170.33,67.2,0.26731,122,169.62,66.868,0.26828,122,67.034,169.97,0.2678,cubic,0.1102,6.786981166,H5
mp-2027,HfCo,HfCo,152.67,150.17,56.2,0.33606,152.67,150.08,56.162,0.33615,152.67,56.181,150.13,0.33611,cubic,0,12.61270737,H1a
mp-754364,Y2CuO4,Y2CuO4,148.67,188.2,73,0.28902,141.5,120.6,44.407,0.35795,145.08,58.703,155.18,0.32173,tetragonal,0,5.710752019,H4
mp-504908,In2TeO6,In2TeO6,142.33,159.21,60.6,0.31358,140.68,155.79,59.218,0.31543,141.51,59.909,157.5,0.3145,trigonal,1.0231,6.485791296,H2
mp-19282,Sr2ZnWO6,Sr2ZnWO6,144,162.2,61.8,0.31227,144,149.36,56.271,0.32713,144,59.035,155.81,0.31966,cubic,3.4564,6.575476112,H2
mp-21359,SbRh2,SbRh2,172.78,141.45,51.867,0.36356,165.34,136.13,49.945,0.36278,169.06,50.906,138.79,0.36318,orthorhombic,0,10.94432347,H4
mp-975439,Mn3S,Mn3S,165.67,172.92,65.2,0.32604,165.67,107.76,38.718,0.39159,165.67,51.959,141.12,0.35803,cubic,0,7.134536273,H1a
mp-10896,Y(MnAl2)4,Y(MnAl2)4,100.78,185.76,77.867,0.19279,100.75,178.28,73.971,0.20508,100.77,75.919,182.04,0.19891,tetragonal,0,4.563414925,H4
mp-13683,HfGe2,HfGe2,113.44,178.83,72.267,0.23728,111.73,171.94,69.133,0.24352,112.59,70.7,175.39,0.24036,orthorhombic,0,9.869969363,H4
mp-1953,TiAl,TiAl,114.89,186.67,75.933,0.2292,114.88,161.03,63.581,0.26637,114.88,69.757,174.04,0.2475,tetragonal,0,3.833901613,H4
mp-5767,DyPO4,DyPO4,143.89,186.3,72.533,0.28421,133.2,131.31,49.153,0.33571,138.55,60.843,159.22,0.30846,tetragonal,5.8933,5.816342596,H4
mp-4661,ScOF,ScOF,142.44,170.76,65.667,0.3002,139.95,143.95,54.175,0.32857,141.2,59.921,157.48,0.31411,monoclinic,4.5236,3.753752506,H2
mp-862365,Sc2OsPd,Sc2OsPd,138.67,159.6,61,0.30818,138.67,158.67,60.593,0.30929,138.67,60.797,159.13,0.30873,cubic,0,9.26300061,H1a
mp-30045,CoGe2,CoGe2,120.33,170.81,67.6,0.26342,120.25,170.61,67.514,0.26354,120.29,67.557,170.71,0.26348,orthorhombic,0,7.703665361,H4
mp-2430,ZrGe2,ZrGe2,108.11,181.69,74.467,0.21991,106.51,174.82,71.272,0.22644,107.31,72.869,178.26,0.22314,orthorhombic,0,7.049394379,H4
mp-5370,ErNbO4,ErNbO4,150.56,162.93,61.733,0.31963,143.1,144.27,54.155,0.33198,146.83,57.944,153.62,0.32562,monoclinic,3.4997,7.195147377,H2
mp-1513,Co9S8,Co9S8,129.67,164.87,64,0.28808,129.67,164.67,63.908,0.28834,129.67,63.954,164.77,0.28821,cubic,0,5.545773151,H1a
mp-4771,TiAlCu2,TiAlCu2,134.33,183.69,72.2,0.2721,134.33,138.91,52.316,0.32765,134.33,62.258,161.78,0.29928,cubic,0,6.143751951,H1a
mp-13150,BN,BN,201.56,352.68,145.93,0.20837,3.965,8.516,3.7284,0.14203,102.76,74.831,180.64,0.20701,trigonal,4.4847,2.06032289,H2
mp-1016108,TiZnN2,TiZnN2,154.78,148.64,55.467,0.33994,154.14,148.13,55.281,0.33983,154.46,55.374,148.39,0.33988,orthorhombic,2.3663,4.766285613,H2
mp-4889,Y(GeRh)2,Y(GeRh)2,144.44,159.65,60.667,0.31579,143.78,150.89,56.934,0.32509,144.11,58.8,155.28,0.32041,tetragonal,0,8.173952514,H4
mp-567181,ZrRh,ZrRh,162,149.19,55.4,0.34651,161,137.74,50.735,0.35741,161.5,53.068,143.49,0.35192,orthorhombic,0,8.722131321,H4
mp-1025258,ZnPPd5,ZnPPd5,150.67,157.03,59.2,0.32629,150.48,144.63,53.972,0.33982,150.57,56.586,150.86,0.33301,tetragonal,0,9.774672759,H4
mp-22441,Ba2MgReO6,Ba2MgReO6,119.33,175.23,69.8,0.25526,119.33,166.46,65.665,0.26751,119.33,67.732,170.87,0.26136,cubic,0,7.044236304,H1a
mp-1016926,ZnIrO3,ZnIrO3,186.33,127,45.8,0.38641,186.33,125.16,45.083,0.38805,186.33,45.441,126.08,0.38723,cubic,0,8.509445632,H1a
mp-865321,Lu2IrRu,Lu2IrRu,137,159.8,61.2,0.30559,137,159.54,61.083,0.30591,137,61.142,159.67,0.30575,cubic,0,14.31478876,H1a
mp-763099,Li2VO2F,Li2VO2F,104,188.35,78.6,0.19816,103.09,171.36,70.058,0.22297,103.55,74.329,179.93,0.21038,orthorhombic,1.168,3.424826914,H2
mp-510198,IrPb,IrPb,139.89,181.59,70.733,0.28365,121.3,145.71,56.051,0.29979,130.59,63.392,163.69,0.29109,hexagonal,0,15.3141364,H4
mp-12669,Dy2SO2,Dy2SO2,125.67,168.5,66,0.27652,125.23,165.28,64.56,0.28004,125.45,65.28,166.89,0.27828,trigonal,3.1151,7.77061705,H2
mp-1982,Al21Pt8,Al21Pt8,133.22,162.67,62.733,0.2965,132.09,161.96,62.5,0.29565,132.66,62.617,162.31,0.29608,tetragonal,0,7.709187174,H4
mp-16528,Al6Re,Al6Re,112.89,177.18,71.533,0.23842,112.51,171.93,69.031,0.24531,112.7,70.282,174.56,0.24185,orthorhombic,0,5.05114309,H4
mp-1016900,CaOsO3,CaOsO3,160.67,155.31,58,0.33889,160.67,131.81,48.343,0.36327,160.67,53.172,143.67,0.35097,cubic,0,7.48630359,H1a
mvc-11198,YTiO3,YTiO3,186.67,160.62,59.2,0.35659,186.67,88.782,31.245,0.42073,186.67,45.223,125.53,0.38792,cubic,0,5.200236792,H1a
mp-30593,ZnCu2Ni,ZnCu2Ni,142.44,175.7,67.867,0.29443,142.43,135.24,50.398,0.34174,142.44,59.132,155.83,0.31766,tetragonal,0,8.744656422,H4
mp-30047,Sn2Mo,Sn2Mo,114.78,173.41,69.467,0.24819,114.77,172.93,69.233,0.24888,114.77,69.35,173.17,0.24853,hexagonal,0,8.700656281,H4
mp-754698,NbO2,NbO2,169.22,145.77,53.733,0.35643,163.93,133.04,48.741,0.36474,166.58,51.237,139.42,0.36051,monoclinic,0,4.812067866,H4
mp-30655,Ga4Ni3,Ga4Ni3,132.33,163.56,63.2,0.294,132.33,160.97,62.04,0.29727,132.33,62.62,162.27,0.29564,cubic,0,7.990394588,H1a
mp-4466,Tb(SiNi)2,Tb(SiNi)2,110.11,179.5,73.067,0.22831,109.34,172.55,69.749,0.23697,109.72,71.408,176.04,0.23261,tetragonal,0,7.334387111,H4
mp-7424,BPd2,BPd2,179.33,142.25,52,0.3678,178.93,118.84,42.769,0.3893,179.13,47.385,130.64,0.37845,orthorhombic,0,9.523490139,H4
mp-984,BN,BN,200.56,350.39,144.93,0.20881,4.9646,9.3119,3.9211,0.18739,102.76,74.427,179.86,0.20829,hexagonal,4.4938,1.956240949,H1b
mp-982666,LiAl2Tc,LiAl2Tc,132.33,187.12,74,0.26433,132.33,135.86,51.119,0.32889,132.33,62.559,162.13,0.29581,cubic,0,4.671484481,H1a
mp-11808,ScNi4Sn,ScNi4Sn,152.33,155.35,58.4,0.33003,152.33,142.53,53.023,0.34406,152.33,55.712,148.97,0.33701,cubic,0,8.058379435,H1a
mp-23137,Ba2YBiO6,Ba2YBiO6,114.67,175.73,70.6,0.24457,114.67,170.24,67.958,0.25255,114.67,69.279,173,0.24855,cubic,1.8249,6.695812407,H5
mp-20033,SnIr,SnIr,156.44,165.39,62.467,0.32381,152.8,128.91,47.414,0.35939,154.62,54.94,147.37,0.34115,hexagonal,0,12.92843987,H4
mp-22260,Y(MnSn)6,Y(MnSn)6,110.11,178.69,72.667,0.22953,110.11,172.5,69.62,0.23889,110.11,71.143,175.61,0.23419,hexagonal,0,8.074741664,H4
mp-12697,Sc(MnSn)6,Sc(MnSn)6,112.44,177.33,71.667,0.23716,112.4,171.14,68.665,0.24622,112.42,70.166,174.25,0.24167,hexagonal,0,7.941955206,H4
mp-2354,Ti3Hg,Ti3Hg,118.67,172.97,68.8,0.25706,118.67,167.98,66.442,0.26408,118.67,67.621,170.48,0.26056,cubic,0,8.138605104,H1a
mp-604884,BN,BN,199.78,351.56,145.67,0.20671,3.9451,8.5084,3.7299,0.14055,101.86,74.698,180.08,0.20536,hexagonal,4.422,2.12816141,H1b
mp-21163,SiPt3,SiPt3,202.78,122.75,43.867,0.39911,192.02,111.94,39.897,0.40284,197.4,41.882,117.35,0.40092,orthorhombic,0,16.77668607,H4
mp-971752,ZnCr3,ZnCr3,108.33,180.83,74,0.2218,108.33,172,69.612,0.23539,108.33,71.806,176.44,0.22856,cubic,0,7.033960434,H1a
mp-672294,Eu(CoSi)2,Eu(CoSi)2,94.333,190.01,81.6,0.16429,93.16,178.29,75.482,0.18103,93.747,78.541,184.19,0.17255,tetragonal,0,6.991037334,H4
mp-774,CaNi5,CaNi5,125.89,167.97,65.733,0.27763,123.56,165.01,64.585,0.27742,124.72,65.159,166.49,0.27753,hexagonal,0,6.747575602,H4
mp-961659,TiSiPd,TiSiPd,134,170.08,66,0.28846,134,150.85,57.474,0.31237,134,61.737,160.55,0.30031,cubic,0.439,5.951367128,H5
mp-1780,ScRh,ScRh,137.67,159.45,61,0.30696,137.67,156.85,59.86,0.31011,137.67,60.43,158.15,0.30853,cubic,0,7.244989221,H1a
mp-982739,TmHfCo2,TmHfCo2,162.67,143.91,53.2,0.35255,162.67,138.53,51.003,0.35806,162.67,52.102,141.23,0.3553,cubic,0,11.60270949,H1a
mp-34139,Mn2CrO4,Mn2CrO4,153.44,157.05,59.067,0.32942,153.1,138.01,51.125,0.34976,153.27,55.096,147.6,0.3395,monoclinic,0.6672,4.658658969,H4
mp-1009264,NbCo,NbCo,154.33,147,54.8,0.34125,154.33,146.68,54.665,0.3416,154.33,54.732,146.84,0.34143,cubic,0,8.612386107,H1a
mp-19019,NiMoO4,NiMoO4,148.67,167.91,64,0.31176,145.95,134.42,49.914,0.3465,147.31,56.957,151.36,0.32874,monoclinic,2.178,5.458432487,H2
mvc-14201,Ca3Sn2O7,Ca3Sn2O7,129.11,163.59,63.467,0.28882,128.81,162.85,63.157,0.28929,128.96,63.312,163.22,0.28905,orthorhombic,2.5826,4.791097869,H2
mp-684709,K3B17,K3B17,102.89,194.61,82.133,0.18475,89.502,169.87,71.756,0.18367,96.195,76.945,182.24,0.18425,tetragonal,0,2.199485443,H4
mvc-14558,Mg2TiN2,Mg2TiN2,112.11,184.11,75.067,0.2263,105.14,166.79,67.491,0.23562,108.63,71.279,175.46,0.23079,monoclinic,0,3.273611257,H4
mp-10960,Tb2Ti2S2O5,Tb2Ti2S2O5,139.11,165.72,63.667,0.30146,137.09,148.47,56.261,0.3195,138.1,59.964,157.15,0.31035,tetragonal,0.7013,5.549563216,H1a
mp-22598,In2O3,In2O3,145,152.59,57.6,0.3246,145,152.57,57.591,0.32463,145,57.595,152.58,0.32462,cubic,0.9325,6.751274626,H5
mp-22447,Zr3P,Zr3P,125.44,165.55,64.667,0.28005,125.44,164.8,64.32,0.28105,125.44,64.493,165.17,0.28055,tetragonal,0,6.378793451,H4
mp-865093,TiZnNi2,TiZnNi2,169.33,165.77,62,0.33684,169.33,104.77,37.5,0.39688,169.33,49.75,135.94,0.3662,cubic,0,7.587307475,H1a
mp-21035,Sc3PbC,Sc3PbC,97.333,181.67,76.4,0.18893,97.333,180.97,76.031,0.19012,97.333,76.215,181.32,0.18952,cubic,0,6.182345081,H1a
mp-27606,ZrAs2,ZrAs2,110,176.5,71.6,0.23257,109.96,172.11,69.449,0.23914,109.98,70.524,174.31,0.23584,orthorhombic,0,6.847379483,H4
mp-976893,Ni3Sb,Ni3Sb,142,160.08,61,0.31211,139.08,150.44,56.996,0.31972,140.54,58.998,155.27,0.31587,hexagonal,0,9.643414263,H4
mp-578601,NaNbO2,NaNbO2,145.78,173.09,66.467,0.3021,145.72,129.53,47.906,0.35186,145.75,57.187,151.72,0.32651,trigonal,0,5.391747829,H2
mp-10676,Sc2AlSi2,Sc2AlSi2,101.44,182.57,76.067,0.20005,101.2,175.42,72.424,0.21109,101.32,74.245,179.01,0.20554,tetragonal,0,3.290025457,H4
mp-1017627,Lu3AlN,Lu3AlN,100,180,75,0.2,100,179.4,74.688,0.201,100,74.844,179.7,0.2005,cubic,0,9.423145834,H1a
mp-10901,Al3Pd2,Al3Pd2,128.78,164.42,63.867,0.28721,128.22,161.29,62.497,0.29036,128.5,63.182,162.85,0.28878,trigonal,0,5.997110471,H2
mvc-14934,CaFeWO6,CaFeWO6,133,175.17,68.4,0.28049,133,144.28,54.683,0.3192,133,61.542,159.95,0.29956,cubic,0,5.193241929,H1a
mp-977578,Zr2TcPd,Zr2TcPd,155.33,145.66,54.2,0.34371,155.33,144.66,53.786,0.34478,155.33,53.993,145.16,0.34425,cubic,0,8.744586696,H1a
mp-976847,Ni3Sb,Ni3Sb,171.33,136.7,50,0.36702,171.33,131.48,47.913,0.3721,171.33,48.957,134.1,0.36956,cubic,0,9.561920372,H1a
mp-951,CeRh2,CeRh2,190.33,134.87,48.8,0.3819,190.33,106.26,37.761,0.40696,190.33,43.281,120.69,0.39431,cubic,0,10.50661837,H1a
mp-18908,Sr2NiTeO6,Sr2NiTeO6,131.44,166.67,64.667,0.28867,130.07,155.58,59.81,0.30065,130.76,62.238,161.15,0.2946,monoclinic,1.9572,5.911444501,H4
mp-865195,TmGaRh2,TmGaRh2,144.67,152.09,57.4,0.32479,144.67,151.97,57.349,0.32492,144.67,57.375,152.03,0.32485,cubic,0,11.19545251,H1a
mp-961661,ZrSiPd,ZrSiPd,132,169.71,66,0.28571,132,150.57,57.474,0.30989,132,61.737,160.23,0.29769,cubic,0.348,6.559243716,H5
mp-5652,Y2Si2O7,Y2Si2O7,141.33,169.53,65.2,0.30008,136.26,141.86,53.471,0.32648,138.8,59.336,155.8,0.31291,monoclinic,4.8078,3.89055026,H2
mp-631633,LaCoTc2,LaCoTc2,123.33,165.86,65,0.27586,123.33,165.42,64.797,0.27646,123.33,64.898,165.64,0.27616,cubic,0,9.744828164,H1a
mp-21850,Fe3SnC,Fe3SnC,140,167.06,64.2,0.30112,140,142.48,53.549,0.33038,140,58.874,154.91,0.31559,cubic,0,8.406158407,H1a
mp-753911,GdAsO4,GdAsO4,134.33,163.45,63,0.29721,131.16,155.65,59.765,0.30221,132.75,61.383,159.55,0.29967,tetragonal,3.0461,6.57379845,H4
mp-862372,Sc2RuRh,Sc2RuRh,140.33,156.63,59.6,0.31398,140.33,152.62,57.864,0.31875,140.33,58.732,154.62,0.31636,cubic,0,7.282056715,H1a
mp-410,YbPt2,YbPt2,135.67,161.86,62.2,0.30115,135.67,153.42,58.49,0.31152,135.67,60.345,157.66,0.30632,cubic,0,16.64651366,H1a
mp-27719,Al2CuO4,Al2CuO4,185.33,149.65,54.8,0.36542,185.33,96.727,34.227,0.41302,185.33,44.514,123.64,0.38881,cubic,0,4.444364032,H1a
mp-8307,CaNi4B,CaNi4B,133.89,160.53,61.733,0.30017,132.25,157.82,60.65,0.3011,133.07,61.192,159.18,0.30063,hexagonal,0,6.319283751,H4
mp-2866,Yb(FeSi)2,Yb(FeSi)2,117.22,174.16,69.533,0.25237,113.62,166.18,66.141,0.25624,115.42,67.837,170.17,0.25427,tetragonal,0,7.53776753,H4
mp-30181,PrAl3Ni2,PrAl3Ni2,147.56,158.36,59.933,0.32113,131.33,151.38,57.87,0.30789,139.44,58.902,154.9,0.31486,hexagonal,0,5.611744136,H4
mp-20817,GePtSe,GePtSe,120.78,171.06,67.667,0.26395,120.72,162.49,63.688,0.27567,120.75,65.677,166.79,0.26979,orthorhombic,0.6272,10.11117129,H2
mp-685148,Ho2O3,Ho2O3,147.33,150.52,56.6,0.32972,147.33,148.61,55.788,0.33189,147.33,56.194,149.57,0.33081,cubic,0,11.37586601,H1a
mp-8431,Ca(BRh)2,Ca(BRh)2,148.89,159,60.133,0.32202,146.87,139.24,51.879,0.34199,147.88,56.006,149.19,0.33186,orthorhombic,0,6.045786897,H4
mp-973633,LuSi2Ni,LuSi2Ni,130,166.7,64.8,0.28628,127.62,156.54,60.415,0.29556,128.81,62.608,161.64,0.29086,orthorhombic,0,7.677877887,H4
mp-775907,Y2O3,Y2O3,129.33,170.97,66.8,0.27968,126.6,153.16,58.983,0.29837,127.97,62.891,162.12,0.28886,monoclinic,3.5727,5.198378392,H2
mp-12952,HfGaAu,HfGaAu,133.67,162.44,62.6,0.29745,127.86,158.23,61.152,0.29374,130.76,61.876,160.34,0.29564,hexagonal,0,13.30147751,H4
mp-318,SrIr2,SrIr2,226,107.41,37.8,0.42079,226,80.524,27.948,0.44062,226,32.874,94.061,0.43063,cubic,0,13.4263047,H1a
mp-861991,PaMn2Al,PaMn2Al,145,155.39,58.8,0.32139,145,146.55,55.031,0.33155,145,56.915,150.99,0.32645,cubic,0,9.782655468,H1a
mp-15901,Li2LaTa2O7,Li2LaTa2O7,127.67,184.79,73.4,0.25876,96.774,158.26,64.47,0.22743,112.22,68.935,171.66,0.24506,tetragonal,0,7.001143962,H4
mp-631535,BeW2Cl,BeW2Cl,207.33,107.44,38,0.41364,207.33,107.33,37.961,0.41372,207.33,37.981,107.38,0.41368,cubic,0,12.68008883,H1a
mp-12086,Cu3Pt,Cu3Pt,159.33,157.55,59,0.3352,159.33,124.29,45.361,0.36999,159.33,52.18,141.13,0.35237,cubic,0,12.41322548,H1a
mp-865322,UTlO3,UTlO3,140.67,161.26,61.6,0.30893,140.67,145.97,55,0.32704,140.67,58.3,153.67,0.31793,cubic,0.3286,9.840836325,H5
mp-755318,ScHO2,ScHO2,158.89,181.13,69.133,0.31,154.34,102.52,36.895,0.38929,156.61,53.014,142.92,0.34791,hexagonal,3.6892,3.155372383,H1b
mp-774192,Li2VO3,Li2VO3,110,186.9,76.8,0.21681,104.55,161.61,65.042,0.24237,107.27,70.921,174.34,0.22913,triclinic,1.61,3.460701458,H5
mp-2078,TiCu,TiCu,130.67,171.22,66.8,0.2816,130.52,148.67,56.736,0.31017,130.6,61.768,160.07,0.29572,tetragonal,0,6.440936363,H4
mp-1018723,HoCo3Cu2,HoCo3Cu2,142.56,154,58.333,0.31996,142.53,150.51,56.841,0.324,142.54,57.587,152.26,0.32198,hexagonal,0,9.273094066,H4
mp-504723,Ba2NiWO6,Ba2NiWO6,122,171.61,67.8,0.26556,122,159.15,62.043,0.28258,122,64.922,165.42,0.27401,cubic,3.3607,7.36889271,H2
mp-998982,Ti3Sn,Ti3Sn,149,154.49,58.2,0.3272,149,141.26,52.632,0.34199,149,55.416,147.91,0.33455,cubic,0,6.031736664,H1a
mp-605663,AlPd5,AlPd5,161.56,148.02,54.933,0.34729,161.48,130.58,47.825,0.36523,161.52,51.379,139.36,0.3562,orthorhombic,0,10.20150333,H4
mp-2731,TiGa3,TiGa3,99.889,182.51,76.333,0.19548,99.341,174.23,72.131,0.2077,99.615,74.232,178.39,0.20154,tetragonal,0,6.684291792,H4
mp-2643,Ti3Cu4,Ti3Cu4,132.78,176.15,68.867,0.2789,132.51,140.4,53.043,0.32341,132.64,60.955,158.57,0.30075,tetragonal,0,6.748300444,H4
mp-30507,CeIr5,CeIr5,154.78,205.31,80.267,0.27892,61.245,136.86,60.688,0.12757,108.01,70.477,173.66,0.23203,hexagonal,0,17.20435308,H4
mp-754605,LiLuO2,LiLuO2,129.78,186.26,73.867,0.26079,95.856,155.1,63.034,0.23032,112.82,68.45,170.81,0.24766,tetragonal,4.5008,7.422133455,H4
mp-567276,TaV2,TaV2,201,111.48,39.6,0.40756,201,111.46,39.594,0.40758,201,39.597,111.47,0.40757,cubic,0,10.38566089,H1a
mp-25372,LiCuO2,LiCuO2,123.89,169.73,66.733,0.27167,120.28,160.57,62.846,0.2775,122.08,64.79,165.15,0.27454,trigonal,0,4.74568171,H2
mp-1024983,ErInNi4,ErInNi4,146.67,152.33,57.4,0.3269,146.67,146.13,54.772,0.33395,146.67,56.086,149.24,0.33041,cubic,0,9.933670923,H1a
mp-755895,Ba3Zr2O7,Ba3Zr2O7,119.11,169.83,67.267,0.26236,118.85,164.11,64.616,0.26986,118.98,65.941,166.98,0.2661,tetragonal,3.03,5.860194592,H4
mp-6969,Sc(CuSi)2,Sc(CuSi)2,120.44,168.42,66.467,0.26695,119.16,164.51,64.774,0.26989,119.8,65.62,166.47,0.26841,tetragonal,0,5.145358571,H4
mp-989576,YWN3,YWN3,181.67,181.84,68.2,0.33317,158.47,82.142,29.054,0.41361,170.07,48.627,133.19,0.36948,trigonal,1.6355,8.35569462,H2