Material_ID,Formula,pretty_formula,KV ,EV ,GV ,PV ,KR ,ER ,GR ,PR ,bulk,shear,young,poisson,csyst,gap,density,y_cla
mp-18802,BaPr2NiO5,BaPr2NiO5,115.11,151.76,59.267,0.28028,114.7,135.64,52.051,0.30291,114.91,55.659,143.76,0.29148,orthorhombic,2.0241,6.665805583,H2
mp-867802,Sc2CuOs,Sc2CuOs,125.67,141.24,53.8,0.31267,125.67,132.19,49.896,0.32468,125.67,51.848,136.74,0.31865,cubic,0,8.432018904,H1a
mp-10139,Sc3SnB,Sc3SnB,82.667,163.77,70,0.16981,82.667,160.78,68.369,0.17584,82.667,69.185,162.28,0.17282,cubic,0,4.342502152,H1a
mp-16259,Ca(GeIr)2,Ca(GeIr)2,88.444,162.51,68.067,0.19376,87.099,156.73,65.301,0.20009,87.772,66.684,159.63,0.19689,tetragonal,0,10.26428286,H4
mp-571506,TmAlSi,TmAlSi,91.889,160.4,66.333,0.20906,91.794,154.4,63.296,0.21966,91.841,64.815,157.41,0.21434,orthorhombic,0,6.507801807,H4
mp-568565,CrAs,CrAs,88.667,167,70.4,0.18609,88.615,151,62.087,0.21601,88.641,66.244,159.1,0.20086,hexagonal,0,6.508013248,H4
mp-34,Si,Si,109.22,168.39,67.733,0.24305,108.26,125.13,47.856,0.30736,108.74,57.794,147.29,0.27425,hexagonal,0,3.097101142,H4
mp-24237,ScH2,ScH2,96.667,158.49,64.6,0.22673,96.667,150.48,60.651,0.24055,96.667,62.625,154.51,0.2336,cubic,0,2.856686142,H1a
mp-1194,CdPt,CdPt,137,135.16,50.6,0.33557,136.7,122.51,45.353,0.35064,136.85,47.976,128.87,0.34305,tetragonal,0,14.47374823,H4
mp-3503,Li6WN4,Li6WN4,85.222,161.39,68.133,0.18437,84.473,160.35,67.735,0.18363,84.848,67.934,160.87,0.184,tetragonal,3.08,4.19750793,H4
mp-865299,TmZnRh2,TmZnRh2,134,134.36,50.4,0.33289,134,127.13,47.368,0.34188,134,48.884,130.75,0.33737,cubic,0,11.06553066,H1a
mp-1018029,CuPd,CuPd,141.33,162.27,62,0.30864,141.33,86.664,31,0.3978,141.33,46.5,125.71,0.35175,cubic,0,10.26589677,H1a
mp-567229,LuAlSi,LuAlSi,91.444,160.12,66.267,0.20816,91.419,154.32,63.316,0.21866,91.432,64.791,157.23,0.21339,orthorhombic,0,6.78950787,H4
mp-3736,ZrAlCu2,ZrAlCu2,128.33,139.76,53,0.31849,128.33,128.99,48.404,0.33247,128.33,50.702,134.41,0.32545,cubic,0,6.674112097,H1a
mp-4536,ScNi2Sn,ScNi2Sn,127.67,144.28,55,0.31164,127.67,125.18,46.83,0.33658,127.67,50.915,134.82,0.32399,cubic,0,7.617876267,H1a
mp-13450,HfSb,HfSb,101.89,160.26,64.733,0.23785,100.42,142.76,56.516,0.26305,101.15,60.624,151.59,0.25023,orthorhombic,0,10.77699145,H4
mp-13117,CuN,CuN,206.33,83.106,29,0.43287,206.33,75.181,26.118,0.43927,206.33,27.559,79.152,0.43606,cubic,0,5.920540558,H1a
mp-867568,CsTi6O12,CsTi6O12,122,155.97,60.6,0.28692,116.64,123.75,46.761,0.32318,119.32,53.68,140.04,0.30439,tetragonal,0,4.196789491,H4
mp-2620,DySi,DySi,92.333,162.63,67.4,0.20645,92.073,150.16,61.132,0.22818,92.203,64.266,156.45,0.2172,orthorhombic,0,7.308709117,H4
mp-974337,RuPbO3,RuPbO3,116.33,143.43,55.4,0.29451,116.33,140.32,54.01,0.29897,116.33,54.705,141.88,0.29674,cubic,0,9.242715938,H1a
mp-1627,Mo2S3,Mo2S3,101.89,157.8,63.533,0.24187,96.945,146.69,58.78,0.24781,99.417,61.156,152.25,0.24476,monoclinic,0,5.693219085,H4
mp-10192,LuP,LuP,91.333,161.12,66.8,0.20599,91.333,152.42,62.372,0.22186,91.333,64.586,156.8,0.21387,cubic,0,8.041799916,H1a
mp-5451,Er(FeGe)2,Er(FeGe)2,125.78,144.16,55.067,0.30897,125.7,126.8,47.602,0.33188,125.74,51.334,135.56,0.32032,tetragonal,0,8.830491184,H4
mp-861875,LiHf2Re,LiHf2Re,135.67,129.77,48.4,0.34058,135.67,127.71,47.544,0.3431,135.67,47.972,128.74,0.34184,cubic,0,12.90312202,H1a
mp-22040,Sn7Ir3,Sn7Ir3,102,150.49,60,0.2541,102,150.29,59.902,0.25444,102,59.951,150.39,0.25427,cubic,0,10.83098708,H1a
mp-554678,CaGe2O5,CaGe2O5,126.67,168.26,65.8,0.2786,105.48,114.59,43.438,0.31894,116.07,54.619,141.64,0.29662,triclinic,2.4968,4.661997113,H5
mp-862424,Sc2TcNi,Sc2TcNi,118,140.56,54,0.30147,118,140.01,53.757,0.30225,118,53.878,140.28,0.30186,cubic,0,6.216165692,H1a
mp-862797,RbAcTe2,RbAcTe2,275.67,33.151,11.2,0.47996,275.67,21.319,7.1678,0.48711,275.67,9.1839,27.249,0.48353,cubic,1.1811,6.528528514,H5
mp-24659,UH3,UH3,107,150.37,59.4,0.26577,107,143.93,56.406,0.27582,107,57.903,147.16,0.27077,cubic,0,11.39814315,H1a
mp-1347,Th3P4,Th3P4,108,146.72,57.6,0.27358,108,146.34,57.428,0.27416,108,57.514,146.53,0.27387,cubic,0.2658,8.426089712,H5
mp-961675,ScNiP,ScNiP,84,160.28,67.8,0.18199,84,160.22,67.768,0.18211,84,67.784,160.25,0.18205,cubic,0.7107,4.894902715,H5
mp-22221,MnCu2Sn,MnCu2Sn,183,140,51,0.3725,183,47.881,16.438,0.45639,183,33.719,95.304,0.4132,cubic,0,8.209805459,H1a
mp-9972,YSi,YSi,89.556,162.67,67.933,0.19727,89.549,151.72,62.301,0.21762,89.552,65.117,157.24,0.20736,orthorhombic,0,4.464025792,H4
mp-22568,V3Ga,V3Ga,168,119.37,43.2,0.38158,168,92.195,32.727,0.40854,168,37.964,105.91,0.39493,cubic,0,6.726541666,H1a
mp-549970,Ba2ZnReO6,Ba2ZnReO6,130,143.68,54.6,0.31579,130,120.32,44.706,0.34574,130,49.653,132.14,0.33059,cubic,0,7.462941895,H1a
mp-981312,ZrCu2Hg,ZrCu2Hg,117.67,152.09,59.2,0.28457,117.67,128.05,48.554,0.31863,117.67,53.877,140.23,0.30138,cubic,0,10.55698296,H1a
mp-3494,CeGa3Pd2,CeGa3Pd2,129.56,134.16,50.533,0.32741,126.95,132.42,49.925,0.32616,128.25,50.229,133.29,0.32679,hexagonal,0,8.558128538,H4
mp-2039,ScMn2,ScMn2,167,111.13,40,0.38909,166.59,102.19,36.553,0.39777,166.8,38.277,106.67,0.39341,hexagonal,0,6.156883876,H4
mp-1797,MnNi,MnNi,150.67,175.05,67,0.30636,148.3,56.895,19.81,0.43606,149.48,43.405,118.72,0.36763,tetragonal,0,7.628917991,H4
mp-1001826,VN,VN,225,87.819,30.6,0.43495,225,40.27,13.696,0.47017,225,22.148,64.333,0.45235,cubic,0,4.931553984,H1a
mp-1401,ZrZn2,ZrZn2,102.33,149.73,59.6,0.25614,102.33,149.42,59.452,0.25664,102.33,59.526,149.58,0.25639,cubic,0,7.229957651,H1a
mp-865867,Li2YTl,Li2YTl,128.67,133.27,50.2,0.32737,128.67,132.21,49.752,0.32874,128.67,49.976,132.74,0.32806,cubic,0,6.296269637,H1a
mp-4990,MnSnRh2,MnSnRh2,171.33,158.77,59,0.34555,171.33,42.939,14.723,0.45823,171.33,36.861,103.18,0.39963,cubic,0,10.0467918,H1a
mp-980206,TmScRu2,TmScRu2,129,136.59,51.6,0.32353,129,128.31,48.084,0.33423,129,49.842,132.47,0.32886,cubic,0,9.729094115,H1a
mp-866156,YGaRh2,YGaRh2,123.33,136.32,51.8,0.31579,123.33,136.1,51.708,0.31608,123.33,51.754,136.21,0.31593,cubic,0,8.96083061,H1a
mp-18775,Fe3PO7,Fe3PO7,137.56,129.32,48.133,0.34332,134.47,126.11,46.925,0.3437,136.01,47.529,127.71,0.3435,trigonal,2.2333,3.850723923,H2
mp-3498,HfGaNi2,HfGaNi2,164.67,112.55,40.6,0.38608,164.67,103.03,36.908,0.39572,164.67,38.754,107.8,0.39089,cubic,0,10.84473401,H1a
mp-12927,Ba(BeN)2,Ba(BeN)2,106.11,169.45,68.667,0.23385,91.169,133.63,53.209,0.25571,98.64,60.938,151.6,0.24386,tetragonal,1.2393,4.440144297,H1a
mp-3301,Dy(SiPd)2,Dy(SiPd)2,128,141.1,53.6,0.31627,123.7,127.78,48.115,0.32784,125.85,50.858,134.46,0.32193,tetragonal,0,8.329223796,H4
mp-12772,Hf2Al,Hf2Al,113.44,146.62,57.067,0.2846,113.14,138.39,53.385,0.29614,113.29,55.226,142.52,0.29034,tetragonal,0,10.39628423,H4
mp-4206,UAs2Pd,UAs2Pd,117.11,143.71,55.467,0.29548,114.76,137.9,53.049,0.29973,115.94,54.258,140.81,0.29758,tetragonal,0,10.75044122,H4
mp-1025335,Lu(TiGa2)2,Lu(TiGa2)2,99.222,157.07,63.533,0.23616,98.714,145.38,57.944,0.25454,98.968,60.739,151.27,0.24526,tetragonal,0,7.441271512,H4
mp-30746,YIr,YIr,128.67,133.27,50.2,0.32737,128.67,131.57,49.477,0.32958,128.67,49.838,132.42,0.32847,cubic,0,11.48553101,H1a
mp-999054,Ti2GaCo,Ti2GaCo,124.67,146.57,56.2,0.30404,124.67,123.25,46.152,0.33523,124.67,51.176,135.05,0.31945,cubic,0,6.493717429,H1a
mp-11029,Y(Al2Cu)4,Y(Al2Cu)4,100.89,150.5,60.133,0.25138,100.88,149.63,59.718,0.25279,100.88,59.926,150.06,0.25209,tetragonal,0,4.660831782,H4
mp-974063,HoScRu2,HoScRu2,133,134.24,50.4,0.33178,133,124.52,46.325,0.34396,133,48.363,129.4,0.33784,cubic,0,9.50781461,H1a
mp-8874,LiSiBO4,LiSiBO4,83.889,165.28,70.533,0.17163,81.877,154.57,65.198,0.18537,82.883,67.866,159.94,0.17838,tetragonal,6.4401,2.669884151,H4
mp-11684,SiO2,SiO2,106.78,156.82,62.467,0.25522,99.708,140.2,55.385,0.26566,103.24,58.926,148.52,0.26024,monoclinic,5.8164,2.796312731,H2
mp-5515,Li7MnN4,Li7MnN4,80.333,166.67,72.2,0.15421,80.333,155.6,66.089,0.17718,80.333,69.144,161.19,0.16559,cubic,0.6562,2.411213393,H5
mp-20841,Ba2CaIrO6,Ba2CaIrO6,108.67,147.72,58,0.27344,108.67,142.54,55.619,0.28138,108.67,56.81,145.14,0.2774,cubic,0,6.598059773,H1a
mp-985579,AlFe2,AlFe2,147,176.75,68,0.29961,146.9,56.755,19.767,0.43561,146.95,43.884,119.73,0.3642,hexagonal,0,6.093348966,H4
mp-1941,GaNi,GaNi,153,146.39,54.6,0.34054,153,82.752,29.348,0.40986,153,41.974,115.37,0.37432,cubic,0,8.621635157,H1a
mp-10903,AlPt,AlPt,185.67,136.63,49.6,0.37735,185.67,45.024,15.424,0.45958,185.67,32.512,92.156,0.41727,cubic,0,12.47967071,H1a
mp-13399,Lu(NiGe)2,Lu(NiGe)2,136.78,130.52,48.667,0.34096,134.83,123.79,45.95,0.34699,135.81,47.308,127.16,0.34395,tetragonal,0,9.20960054,H4
mp-36480,La2CuO4,La2CuO4,121,142.38,54.6,0.30388,117.41,133.93,51.121,0.30989,119.21,52.861,138.16,0.30683,orthorhombic,0,6.919921389,H4
mp-754531,Al2O3,Al2O3,119.11,161.25,63.267,0.27437,94.286,130.89,51.586,0.26863,106.7,57.426,146.07,0.27183,monoclinic,4.3738,3.115100949,H2
mp-30789,U2Mo,U2Mo,176.11,77.786,27.267,0.42639,176.06,119.46,43.065,0.38692,176.09,35.166,98.913,0.40638,tetragonal,0,16.62748844,H4
mp-11400,ScGaNi2,ScGaNi2,129.67,137.61,52,0.32313,129.67,124.43,46.429,0.34006,129.67,49.214,131.06,0.33154,cubic,0,6.986626097,H1a
mp-504711,CoCuO2,CoCuO2,234.44,143.87,51.467,0.39772,182.43,2.5585,0.85416,0.49766,208.44,26.16,75.33,0.43977,trigonal,0.0818,6.356791355,H2
mp-22463,TiInNi2,TiInNi2,152,131.76,48.6,0.35553,152,99.351,35.711,0.39106,152,42.155,115.76,0.37307,cubic,0,8.090536307,H1a
mp-865425,ZnPd3,ZnPd3,152.56,130.17,47.933,0.35779,152.45,100.27,36.059,0.39038,152.5,41.996,115.4,0.37389,tetragonal,0,10.50719632,H4
mp-865868,LiZrRh2,LiZrRh2,138.67,125.72,46.6,0.3489,138.67,124.13,45.946,0.35081,138.67,46.273,124.92,0.34985,cubic,0,8.088549101,H1a
mp-569837,Ti3Sb,Ti3Sb,110.44,150.82,59.267,0.2724,109.76,136.48,52.784,0.29277,110.1,56.025,143.7,0.28247,tetragonal,0,6.001749996,H4
mp-8804,Li6MoN4,Li6MoN4,84,159.53,67.4,0.18347,83.159,158.52,67.038,0.1823,83.58,67.219,159.02,0.18289,tetragonal,2.6302,2.904801508,H4
mp-489,Ge4Ir,Ge4Ir,108.67,148.58,58.4,0.27211,108.35,140.67,54.794,0.28362,108.51,56.597,144.64,0.27783,trigonal,0,8.865439693,H2
mp-994,YP,YP,100.67,152.25,61,0.24793,100.67,146.54,58.271,0.25739,100.67,59.635,149.4,0.25264,cubic,0,4.34581151,H1a
mp-10181,LiSiNi2,LiSiNi2,149,179.32,69,0.29942,149,49.16,17.01,0.44501,149,43.005,117.69,0.36835,cubic,0,5.957779615,H1a
mp-972202,TcAs3,TcAs3,141.44,132.91,49.467,0.34339,134.02,117.87,43.547,0.35342,137.73,46.507,125.41,0.34825,tetragonal,0,8.074259344,H4
mp-7889,Sr2YReO6,Sr2YReO6,126.67,156.35,60.4,0.29428,126.67,108.19,39.843,0.35765,126.67,50.122,132.84,0.32521,cubic,0,6.21927203,H1a
mp-10498,Pr2CuO4,Pr2CuO4,157.33,141.98,52.6,0.3496,157.05,80.402,28.417,0.41467,157.19,40.509,111.91,0.38134,tetragonal,0,7.24282941,H4
mp-560340,La2Pd2O5,La2Pd2O5,130.56,138.96,52.533,0.3226,128.67,122.62,45.712,0.34118,129.61,49.123,130.84,0.33176,tetragonal,1.1457,7.333598415,H1a
mp-775935,ZrO2,ZrO2,133.78,147.58,56.067,0.31613,119.74,117.77,44.071,0.33609,126.76,50.069,132.73,0.32548,monoclinic,3.8579,4.410952024,H2
mvc-14629,Mg2MnN2,Mg2MnN2,97.111,159.96,65.267,0.22546,88.151,147.88,60.584,0.22041,92.631,62.925,153.92,0.22305,monoclinic,0,3.639229681,H4
mp-30599,Ti2Cu3,Ti2Cu3,132,154.05,59,0.30549,131.9,103.02,37.604,0.36982,131.95,48.302,129.15,0.33687,tetragonal,0,6.870863871,H4
mp-999550,Mn3Ga,Mn3Ga,131.67,207.4,83.8,0.23747,131.67,37.655,12.964,0.45234,131.67,48.382,129.31,0.33632,cubic,0,8.151990394,H1a
mp-756436,FeO,FeO,151.78,150.71,56.467,0.33451,127.43,96.665,35.187,0.37358,139.61,45.827,123.92,0.35206,monoclinic,0,5.538628233,H4
mp-3217,USeO,USeO,106.11,154.14,61.267,0.2579,100.68,140.84,55.588,0.26684,103.39,58.427,147.5,0.26224,tetragonal,0,10.44094225,H4
mp-567818,Sm(NiAs)2,Sm(NiAs)2,124,138.71,52.8,0.31356,123.53,130.18,49.15,0.32436,123.77,50.975,134.46,0.31893,tetragonal,0,8.335293762,H4
mp-8354,LaF3,LaF3,169,115.85,41.8,0.38575,167.31,91.596,32.509,0.40876,168.16,37.155,103.82,0.3971,hexagonal,5.7447,5.792260337,H1b
mp-2682,Sb2Rh,Sb2Rh,105.22,156.58,62.533,0.25198,102.42,137.49,53.866,0.27625,103.82,58.2,147.11,0.26384,monoclinic,0.0044,8.478685738,H4
mp-865757,YbGaRh2,YbGaRh2,128.33,131.35,49.4,0.32942,128.33,131.34,49.395,0.32943,128.33,49.398,131.34,0.32943,cubic,0,11.807157,H1a
mp-28024,YSiPd2,YSiPd2,126.89,134.3,50.733,0.3236,125.72,131.08,49.42,0.32622,126.3,50.076,132.69,0.3249,orthorhombic,0,7.661846696,H4
mp-11113,TiTeAs,TiTeAs,83.222,162.79,69.333,0.17398,82.991,154.7,65.038,0.18932,83.106,67.185,158.77,0.18159,orthorhombic,0,6.769605838,H4
mp-862318,LiAl2Ni,LiAl2Ni,102,173.68,71.4,0.21622,102,120.79,46.364,0.30263,102,58.882,148.14,0.25794,cubic,0,3.917294341,H1a
mp-1960,Li2O,Li2O,78.333,163.58,71,0.15196,78.333,158.57,68.195,0.16262,78.333,69.597,161.09,0.15727,cubic,4.9922,1.962800156,H2
mp-11919,Sr(BeN)2,Sr(BeN)2,90.667,180.4,77.2,0.16838,75.462,136.89,57.148,0.19767,83.065,67.174,158.73,0.18151,tetragonal,1.8808,3.682290635,H1a
mp-19814,NiAs2,NiAs2,114.11,154.6,60.667,0.27419,113.56,126.39,48.074,0.31451,113.84,54.371,140.71,0.29399,orthorhombic,0,6.943241404,H4
mp-569671,ZrSb,ZrSb,103.33,149.97,59.6,0.25812,103.33,144.45,57.003,0.26702,103.33,58.302,147.22,0.26255,cubic,0,7.671287524,H1a
mp-18905,FeO,FeO,147,145.75,54.6,0.33475,147,89.807,32.116,0.39818,147,43.358,118.43,0.36573,cubic,0,5.608657423,H1a
mp-861627,Ti2AlMo,Ti2AlMo,150.33,126.21,46.4,0.36007,150.33,105.71,38.223,0.38281,150.33,42.311,116.05,0.37135,cubic,0,5.652812354,H1a
mp-10877,Ca(Al2Cu)4,Ca(Al2Cu)4,92.667,153.68,62.8,0.22359,92.667,153.07,62.491,0.2247,92.667,62.645,153.37,0.22415,tetragonal,0,4.211158223,H4
mp-1029251,LiRuN,LiRuN,106.78,164.31,66.067,0.24353,102.7,127.55,49.322,0.29301,104.74,57.694,146.23,0.26731,orthorhombic,0,5.943440264,H4
mvc-7786,Zn(WO2)2,Zn(WO2)2,143.56,133.75,49.733,0.34471,135.35,113.23,41.611,0.36057,139.45,45.672,123.53,0.35236,triclinic,0,8.745291312,H4
mp-22065,UGePt,UGePt,134.67,133.48,50,0.3348,123.98,127.23,47.87,0.32895,129.32,48.935,130.36,0.33199,orthorhombic,0,14.23743305,H4
mp-13811,Ba2MgUO6,Ba2MgUO6,107,151.65,60,0.26378,107,137.73,53.571,0.28547,107,56.786,144.75,0.27453,cubic,2.0589,6.898912109,H2
mp-1009750,ScN,ScN,140.67,137.46,51.4,0.33714,140.67,107.29,39.074,0.37288,140.67,45.237,122.57,0.35477,cubic,2.5166,3.337838835,H2
mp-697,SnO2,SnO2,99.667,149.5,59.8,0.25,99.667,148.77,59.449,0.25122,99.667,59.624,149.13,0.25061,cubic,0.5915,7.221911931,H5
mp-977455,PaAgO3,PaAgO3,141.67,137.56,51.4,0.33816,141.67,105.61,38.384,0.37575,141.67,44.892,121.81,0.3567,cubic,1.5216,7.823288925,H5
mp-862423,Sc2TcPd,Sc2TcPd,122,135.67,51.6,0.31466,122,134.31,51.011,0.31651,122,51.306,134.99,0.31558,cubic,0,7.028950739,H1a
mp-14793,Mg2SiPt,Mg2SiPt,101.89,152.42,60.933,0.25068,95.496,146.77,59,0.24384,98.692,59.966,149.6,0.24736,hexagonal,0,6.553518012,H4
mp-1045,Nd2O3,Nd2O3,123.67,135.44,51.4,0.31747,123.67,132.28,50.042,0.32172,123.67,50.721,133.86,0.31959,cubic,3.711,6.39558306,H2
mp-13964,HfGeTe,HfGeTe,95.111,156.56,63.867,0.22566,94.498,147.03,59.252,0.24069,94.805,61.559,151.82,0.2331,tetragonal,0,9.690570911,H4
mp-4156,Li2ZrO3,Li2ZrO3,115.56,167.46,66.533,0.25847,86.111,128.87,51.525,0.25057,100.83,59.029,148.17,0.25509,monoclinic,3.8414,4.032147565,H2
mp-1007664,InPd3,InPd3,173.78,130.52,47.467,0.37482,163.86,73.495,25.783,0.42524,168.82,36.625,102.47,0.39884,tetragonal,0,10.89753674,H4
mp-233,UO3,UO3,179.89,159.39,58.933,0.35232,118.51,72.513,25.934,0.39802,149.2,42.434,116.28,0.37011,orthorhombic,0.4685,8.581280784,H2
mp-31457,ZrSbRu,ZrSbRu,135.33,126.37,47,0.34437,135.33,125.19,46.51,0.34583,135.33,46.755,125.78,0.3451,cubic,0,8.129977793,H1a
mp-977059,MgPd5,MgPd5,142.22,122.45,45.133,0.35651,142.22,119.68,44.007,0.35975,142.22,44.57,121.06,0.35813,hexagonal,0,9.831224295,H4
mp-12004,Er2Al3Si2,Er2Al3Si2,88.667,157.87,65.6,0.20326,88.257,152.36,62.838,0.21229,88.462,64.219,155.12,0.20774,monoclinic,0,5.944386532,H4
mp-4909,V2NiS4,V2NiS4,102.11,151.08,60.267,0.25341,100.54,144.35,57.249,0.26071,101.32,58.758,147.72,0.25702,monoclinic,0,4.638953567,H4
mp-24012,HoHSe,HoHSe,86.444,156.43,65.267,0.1984,86.412,155.96,65.025,0.1992,86.428,65.146,156.19,0.1988,hexagonal,1.55,8.245502338,H1a
mp-1025238,Tm(TiGa2)2,Tm(TiGa2)2,102.56,153.42,61.333,0.25068,101.31,141.09,55.64,0.2679,101.93,58.487,147.29,0.25918,tetragonal,0,7.302528847,H4
mp-15837,Nb5Se4,Nb5Se4,115.67,153.03,59.8,0.2795,115.62,123.83,46.853,0.3215,115.64,53.327,138.67,0.30015,tetragonal,0,7.478101029,H4
mp-989554,LaMnN3,LaMnN3,130.78,141.16,53.467,0.3201,129.58,116.74,43.243,0.34985,130.18,48.355,129.08,0.33474,orthorhombic,0,5.962294419,H4
mp-1723,UAl3,UAl3,89.333,156.94,65,0.20721,89.333,152.04,62.5,0.21634,89.333,63.75,154.5,0.21176,cubic,0,6.853468702,H1a
mp-865015,MnSiRh2,MnSiRh2,207.67,136.28,49,0.39062,207.67,7.3347,2.4545,0.49411,207.67,25.727,74.121,0.44051,cubic,0,8.867205649,H1a
mp-849459,Li2FeO2F,Li2FeO2F,103.67,166.18,67.4,0.23282,86.607,136.16,54.993,0.23797,95.137,61.197,151.18,0.23516,monoclinic,1.8154,3.595507549,H4
mp-1025296,SnPPd5,SnPPd5,149.11,133.14,49.267,0.35119,148.71,98.619,35.488,0.38947,148.91,42.377,116.12,0.37004,tetragonal,0,10.04667534,H4
mp-19118,BaNd2CoO5,BaNd2CoO5,113.78,148.87,58.067,0.28192,113.47,130.47,49.859,0.30837,113.62,53.963,139.76,0.29499,orthorhombic,0.0006,6.839010785,H2
mp-760483,Li2PdO3,Li2PdO3,106.44,148.68,58.667,0.2672,104.36,140.86,55.237,0.27505,105.4,56.952,144.78,0.27107,monoclinic,1.4232,4.924029401,H4
mp-1025549,Tl3VSe4,Tl3VSe4,148.67,123.62,45.4,0.36142,148.67,108.38,39.309,0.3785,148.67,42.355,116.04,0.36991,cubic,1.6979,6.559809804,H5
mp-1239,Sb3Ir,Sb3Ir,98.667,150.49,60.4,0.24579,98.667,147.09,58.762,0.25154,98.667,59.581,148.79,0.24866,cubic,0.5269,8.931919428,H5
mp-16304,YPPt,YPPt,134.67,133.48,50,0.3348,119.77,127.73,48.302,0.32225,127.22,49.151,130.63,0.32886,hexagonal,0,9.034147005,H4
mp-4636,ScCuO2,ScCuO2,141.89,148.78,56.133,0.32524,128.47,101.18,36.96,0.36874,135.18,46.547,125.26,0.34556,trigonal,2.3167,4.470823361,H2
mp-27505,Fe3Sn2,Fe3Sn2,106.44,147.4,58.067,0.26921,104.16,142.05,55.805,0.2727,105.3,56.936,144.72,0.27094,trigonal,0,8.281697704,H2
mp-4828,HfNi2Sn,HfNi2Sn,152,139.06,51.6,0.34752,152,87.12,31.015,0.40447,152,41.308,113.63,0.37541,cubic,0,11.15924861,H1a
mp-568006,DyFe5,DyFe5,91.889,160.01,66.133,0.20977,80.283,151.52,63.907,0.18545,86.086,65.02,155.83,0.19831,hexagonal,0,8.548117737,H4
mp-11564,TmRh,TmRh,127.67,131.74,49.6,0.32802,127.67,128.83,48.365,0.33182,127.67,48.982,130.28,0.32992,cubic,0,11.65931264,H1a
mp-103,Hf,Hf,108.22,143.14,55.933,0.27956,108.18,142.62,55.697,0.28029,108.2,55.815,142.88,0.27992,hexagonal,0,13.1832226,H4
mp-3671,NaNbO3,NaNbO3,102.22,155,62.133,0.24729,100.29,139.02,54.777,0.26897,101.26,58.455,147.07,0.25793,orthorhombic,2.3565,4.361273776,H2
mp-762506,SrNiO3,SrNiO3,112.67,144.56,56.2,0.28615,112.67,135.29,52.038,0.29987,112.67,54.119,139.95,0.29297,cubic,0,5.445558235,H1a
mp-1630,Zr3Hg,Zr3Hg,104,149.7,59.4,0.2601,104,140.98,55.325,0.27408,104,57.363,145.36,0.26705,cubic,0,8.921390036,H1a
mp-36884,Mn2SnO4,Mn2SnO4,129.11,136.29,51.467,0.32407,128.12,122.61,45.733,0.3405,128.62,48.6,129.49,0.3322,orthorhombic,0.5098,5.300528564,H2
mp-1521,Sb7Mo3,Sb7Mo3,110,143.19,55.8,0.28305,110,139.91,54.31,0.28802,110,55.055,141.55,0.28553,cubic,0,8.38892771,H1a
mp-4561,UAl3Pd2,UAl3Pd2,122.33,141.22,54,0.3076,121.43,126.45,47.664,0.32644,121.88,50.832,133.88,0.31692,hexagonal,0,8.296603404,H4
mp-864624,HoZnRh2,HoZnRh2,131.33,128.84,48.2,0.3365,131.33,126.18,47.086,0.33987,131.33,47.643,127.51,0.33818,cubic,0,10.79128208,H1a
mp-3597,BaRuO3,BaRuO3,117.33,139.1,53.4,0.30242,116.78,134.76,51.525,0.30768,117.06,52.463,136.93,0.30504,hexagonal,0,6.745703396,H4
mp-982,TmPd3,TmPd3,138.67,140.09,52.6,0.33163,138.67,104.15,37.877,0.37482,138.67,45.239,122.4,0.35288,cubic,0,11.76098665,H1a
mp-357,SmPd3,SmPd3,123,137.19,52.2,0.3141,123,128.51,48.462,0.32587,123,50.331,132.87,0.31996,cubic,0,10.68590489,H1a
mp-776150,ScAgO3,ScAgO3,135.22,144.21,54.533,0.32225,128.2,109.46,40.31,0.3577,131.71,47.422,127.02,0.33927,orthorhombic,0.3819,5.052178606,H2