Material_ID,Formula,pretty_formula,KV ,EV ,GV ,PV ,KR ,ER ,GR ,PR ,bulk,shear,young,poisson,csyst,gap,density,y_cla
mp-570673,ScNi5,ScNi5,158.78,203.43,79.067,0.28646,158.31,198.23,76.756,0.29131,158.55,77.911,200.84,0.28888,hexagonal,0,7.335250997,H4
mp-22307,ScSi2Rh,ScSi2Rh,141.11,214.16,85.867,0.24705,140.99,209,83.405,0.25293,141.05,84.636,211.59,0.24999,orthorhombic,0,5.511415446,H4
mp-432,NbRu,NbRu,237,147.97,53,0.39594,237,146.93,52.598,0.39668,237,52.799,147.45,0.39631,tetragonal,0,9.95447623,H4
mp-22227,ZrMnSi,ZrMnSi,146.22,223.07,89.533,0.24574,146.04,193.36,75.57,0.27933,146.13,82.552,208.41,0.2623,orthorhombic,0,6.199282166,H4
mp-865172,YbTaRu2,YbTaRu2,179.33,197.93,75.2,0.31605,179.33,176.12,65.899,0.33632,179.33,70.549,187.11,0.3261,cubic,0,13.9133884,H1a
mp-4563,Ti3TlC,Ti3TlC,145.67,210.95,83.8,0.25864,145.67,206.01,81.472,0.26429,145.67,82.636,208.48,0.26146,cubic,0,7.729422343,H1a
mp-8927,TaCuN2,TaCuN2,205.56,235.46,89.933,0.30909,200.13,101.42,35.824,0.41554,202.84,62.879,170.97,0.35952,trigonal,0.5842,8.984981469,H2
mp-1252,ZrBe2,ZrBe2,119.44,228.02,96.467,0.18184,119.41,218.52,91.431,0.19501,119.43,93.949,223.3,0.18839,hexagonal,0,4.429202686,H4
mp-1009696,RhC,RhC,245,146.22,52.2,0.40053,245,136.39,48.462,0.40722,245,50.331,141.32,0.40387,cubic,0,7.834406991,H1a
mp-448,CoN,CoN,250.67,142.76,50.8,0.40508,250.67,131.74,46.637,0.41241,250.67,48.719,137.26,0.40873,cubic,0,6.282372099,H1a
mp-989613,TiPN3,TiPN3,176,221.86,86,0.2899,159.67,166.41,62.737,0.3263,167.84,74.368,194.39,0.30696,orthorhombic,0.5324,3.087106688,H2
mp-1025156,NpB6,NpB6,150,268.27,111.6,0.20192,150,135.46,50.189,0.34949,150,80.894,205.7,0.27144,cubic,0,7.320489897,H1a
mp-4893,Hf2SnC,Hf2SnC,138.22,215.19,86.733,0.24053,136.97,211.05,84.882,0.24319,137.59,85.808,213.12,0.24185,hexagonal,0,11.5537378,H4
mp-567590,LuOs2,LuOs2,215.89,162.05,58.933,0.37489,215.57,161.72,58.807,0.37497,215.73,58.87,161.89,0.37493,hexagonal,0,17.44109341,H4
mp-13572,ScSiPt2,ScSiPt2,174.89,203.11,77.733,0.30644,171.8,177.86,66.994,0.32745,173.34,72.364,190.57,0.31677,orthorhombic,0,11.87320488,H4
mp-20401,HfCuSi2,HfCuSi2,136.22,222.34,90.533,0.22796,134.81,205.88,82.653,0.24547,135.52,86.593,214.16,0.23661,tetragonal,0,8.09919205,H4
mp-1016883,ZrZnO3,ZrZnO3,228,170.04,61.8,0.3757,228,135.69,48.434,0.40081,228,55.117,153.02,0.38814,cubic,0,4.778115583,H1a
mp-4090,Ce(SiRh)2,Ce(SiRh)2,138.33,218.22,88.2,0.23708,138.33,206.54,82.541,0.25115,138.33,85.37,212.41,0.24407,tetragonal,0,7.85464421,H4
mp-972103,U3C,U3C,168,245.72,97.8,0.25623,168,137.74,50.516,0.36335,168,74.158,193.94,0.3076,cubic,0,18.24089271,H1a
mp-865707,TiSnRh2,TiSnRh2,179.67,2.9944,1,0.49722,179.67,332.05,139.29,0.19198,179.67,70.143,186.2,0.32727,cubic,0,9.592849175,H1a
mp-2831,FePd,FePd,162.67,211.49,82.4,0.28331,162.31,182.91,69.695,0.31219,162.49,76.048,197.35,0.29757,tetragonal,0,9.670923305,H4
mp-16514,Al3Ni5,Al3Ni5,167.22,214.39,83.333,0.28632,167.09,173.61,65.422,0.32683,167.16,74.378,194.31,0.30626,orthorhombic,0,6.717313154,H4
mp-1025356,ZnAsPt5,ZnAsPt5,185,186.95,70.2,0.33157,184.35,178.42,66.638,0.3387,184.68,68.419,182.7,0.33512,tetragonal,0,16.39845012,H4
mp-11522,Ni3Sn,Ni3Sn,163,204.48,79.2,0.29092,163,189.28,72.44,0.30646,163,75.82,196.93,0.29864,cubic,0,9.47589243,H1a
mp-568940,Y(NiP)2,Y(NiP)2,140.22,215.72,86.733,0.24359,139.84,206.42,82.303,0.25399,140.03,84.518,211.09,0.24877,tetragonal,0,6.264558183,H4
mp-10453,Lu(SiRu)2,Lu(SiRu)2,164.44,200.86,77.467,0.29643,163.21,191.43,73.372,0.30451,163.83,75.419,196.16,0.30044,tetragonal,0,8.777116989,H4
mp-1024963,TbCo2B2C,TbCo2B2C,187.56,200.25,75.733,0.32206,187.55,160.19,58.996,0.35764,187.55,67.365,180.49,0.33961,tetragonal,0,7.962383437,H4
mp-1025354,Er2Fe2Si2C,Er2Fe2Si2C,139.22,219.15,88.533,0.23765,138.41,203.9,81.271,0.25448,138.82,84.902,211.57,0.24598,monoclinic,0,8.070122867,H4
mp-8207,Zn(PtO2)3,Zn(PtO2)3,193.56,202.39,76.333,0.32572,193.09,149.67,54.592,0.37081,193.32,65.463,176.47,0.34786,orthorhombic,0.3682,10.60862176,H2
mp-1018062,FeSnRh2,FeSnRh2,187.78,187.42,70.267,0.33365,187.74,172.98,64.237,0.34643,187.76,67.252,180.24,0.34001,tetragonal,0,10.29328526,H4
mp-29661,Si5Pt6,Si5Pt6,182.67,190.92,72,0.32581,178.83,178.88,67.082,0.33329,180.75,69.541,184.91,0.3295,monoclinic,0,12.64507809,H4
mp-8020,LaTiO3,LaTiO3,187.33,190.53,71.6,0.33049,187.33,170.21,63.107,0.34857,187.33,67.353,180.44,0.33947,cubic,0,6.282852088,H1a
mp-3196,NdGaO3,NdGaO3,163.33,200.97,77.6,0.29493,160.99,192.97,74.205,0.30023,162.16,75.903,196.98,0.29755,orthorhombic,3.4702,7.258699431,H2
mp-27319,Sc2Co3Si,Sc2Co3Si,154.67,207.32,81.2,0.2766,154.65,196.09,76.081,0.28868,154.66,78.64,201.73,0.28261,hexagonal,0,6.006856187,H4
mp-568673,Y(SiRu)2,Y(SiRu)2,151.11,207.6,81.667,0.27103,149.56,201.12,78.817,0.27587,150.34,80.242,204.37,0.27343,tetragonal,0,6.870038864,H4
mp-865308,Be2CuRh,Be2CuRh,177.67,203.67,77.8,0.30894,177.67,169.48,63.19,0.34102,177.67,70.495,186.78,0.32478,cubic,0,7.391895271,H1a
mp-3455,Er(NiP)2,Er(NiP)2,139.33,216.86,87.4,0.2406,138.06,205.9,82.267,0.25143,138.7,84.834,211.4,0.24597,tetragonal,0,8.293440615,H4
mp-571619,HfAlPt,HfAlPt,163.78,202.98,78.467,0.29344,163.08,189.04,72.33,0.3068,163.43,75.398,196.05,0.30007,hexagonal,0,12.5719311,H4
mp-6938,ZnRh,ZnRh,173.67,201.71,77.2,0.30642,173.67,176.8,66.448,0.33033,173.67,71.824,189.37,0.31827,cubic,0,10.04279087,H1a
mp-1008820,PdN2,PdN2,218.33,7.7692,2.6,0.49407,218.33,288.29,112.62,0.27993,218.33,57.61,158.86,0.37874,cubic,0,7.260248104,H1a
mp-19424,TiCoO3,TiCoO3,177.67,193.08,73.2,0.31887,172.36,183.79,69.499,0.32228,175.01,71.35,188.44,0.32055,trigonal,0,4.863010406,H2
mp-865846,LuHfRu2,LuHfRu2,163.33,202.31,78.2,0.29356,163.33,189.49,72.509,0.30665,163.33,75.354,195.93,0.30007,cubic,0,13.04803169,H1a
mp-752826,Al2O3,Al2O3,168.44,223.25,87.267,0.27911,163.65,163.91,61.48,0.33306,166.05,74.373,194.14,0.30514,triclinic,4.0095,3.374396249,H5
mp-16613,AlAuO2,AlAuO2,174.89,218.86,84.733,0.29143,169.73,160.19,59.651,0.34271,172.31,72.192,190.04,0.31619,hexagonal,0.5989,9.21303003,H1a
mp-771123,ScFeO3,ScFeO3,171.22,195.27,74.533,0.30993,171.17,186.21,70.603,0.31869,171.19,72.568,190.75,0.31429,hexagonal,0.9483,4.323275167,H1a
mp-613523,Fe3C,Fe3C,180.22,196.97,74.733,0.31784,180.2,171.9,64.093,0.34101,180.21,69.413,184.54,0.32932,orthorhombic,0,7.205245947,H4
mp-865125,MgGaRh2,MgGaRh2,154,202.83,79.2,0.28049,154,200.17,77.988,0.28336,154,78.594,201.5,0.28192,cubic,0,8.651505634,H1a
mp-21467,TiCo2Sn,TiCo2Sn,168.33,200.44,77,0.30155,168.33,184.09,69.853,0.31773,168.33,73.426,192.32,0.30959,cubic,0,8.375449621,H1a
mp-631576,MoPt2Br,MoPt2Br,230.33,179.74,65.6,0.36994,230.33,118.95,42.062,0.41393,230.33,53.831,149.82,0.39159,cubic,0,14.04654353,H1a
mp-31116,LaScO3,LaScO3,154.44,202.18,78.867,0.28181,153.62,200.62,78.223,0.28234,154.03,78.545,201.4,0.28208,orthorhombic,3.8973,5.67043566,H2
mp-19448,Ni3TeO6,Ni3TeO6,157.44,200.54,77.867,0.28771,156.2,198.68,77.128,0.288,156.82,77.497,199.61,0.28786,trigonal,0,6.177587325,H2
mp-480,ErPt2,ErPt2,173,196.59,75,0.31061,173,181.5,68.481,0.32515,173,71.741,189.08,0.31784,cubic,0,16.43274718,H1a
mp-22246,EuTiO3,EuTiO3,113.67,226.55,97,0.16781,113.67,222.08,94.551,0.17438,113.67,95.775,224.32,0.17108,cubic,0,6.620992707,H1a
mp-864784,LiSnRh2,LiSnRh2,156.33,199.75,77.6,0.28705,156.33,199.74,77.597,0.28705,156.33,77.598,199.75,0.28705,cubic,0,9.174308034,H1a
mp-19384,Ni(AsO3)2,Ni(AsO3)2,157.11,216.18,85.067,0.27067,138.6,193.87,76.514,0.26687,147.85,80.79,205.03,0.26889,trigonal,2.2427,5.501470464,H2
mp-569624,HfCr2,HfCr2,189.78,180.96,67.467,0.34108,189.71,174.5,64.787,0.3467,189.75,66.127,177.73,0.34389,hexagonal,0,10.54126538,H4
mp-606949,C,C,231.22,432.39,181.93,0.18833,6.8789,10.427,4.1796,0.24737,119.05,93.056,221.47,0.18996,hexagonal,0.0006,1.419466084,H1a
mp-4056,CaSc2O4,CaSc2O4,145.22,210.7,83.733,0.25818,142.16,204.21,80.998,0.26059,143.69,82.366,207.46,0.25937,orthorhombic,3.4562,3.818976752,H2
mp-567345,NbRh,NbRh,218.89,178.26,65.333,0.36427,217.91,136.91,49.06,0.39529,218.4,57.197,157.81,0.37957,monoclinic,0,10.07767224,H4
mp-27904,FeSbS,FeSbS,112.78,230.6,99.467,0.15921,110.2,219.64,94.04,0.16781,111.49,96.753,225.13,0.16344,monoclinic,0.6182,6.952996229,H4
mp-21845,FePd3,FePd3,174.33,198.61,75.8,0.31012,174.33,176.96,66.484,0.33082,174.33,71.142,187.87,0.32039,cubic,0,10.540231,H1a
mp-10394,CrCoGe,CrCoGe,178,194.05,73.6,0.3183,170.49,181.7,68.7,0.32238,174.24,71.15,187.88,0.32029,hexagonal,0,8.202506521,H4
mp-1216,YbO,YbO,128.33,220.42,90.8,0.21375,128.33,211.96,86.532,0.22473,128.33,88.666,216.21,0.21921,cubic,3.5311,11.72299148,H2
mp-126,Pt,Pt,247.67,137.91,49,0.4072,247.67,135.77,48.194,0.40863,247.67,48.597,136.84,0.40791,cubic,0,20.60342015,H1a
mp-9312,PrNiC2,PrNiC2,143.22,215.67,86.333,0.24903,132.77,205.35,82.655,0.24222,137.99,84.494,210.52,0.24574,orthorhombic,0,6.829015137,H4
mp-9211,Tm2Fe2Si2C,Tm2Fe2Si2C,136.89,219.71,89.133,0.23249,134.43,203.92,81.751,0.24718,135.66,85.442,211.85,0.23972,monoclinic,0,8.22125648,H4
mp-13944,Li3AlN2,Li3AlN2,104,230.61,102,0.13043,104,225.98,99.303,0.13785,104,100.65,228.3,0.13413,cubic,2.9373,2.334211251,H2
mp-1018081,CrFe3,CrFe3,117,242.47,105,0.15461,117,200.7,82.655,0.2141,117,93.828,222.11,0.1836,cubic,0,8.052321343,H1a
mp-4590,Mg(GaO2)2,Mg(GaO2)2,162.67,211.93,82.6,0.28286,162.67,177.98,67.536,0.31765,162.67,75.068,195.18,0.30002,cubic,3.112,5.002453861,H2
mp-5692,TbRhO3,TbRhO3,190.56,194.04,72.933,0.33028,180.29,166.16,61.705,0.3464,185.43,67.319,180.16,0.33807,orthorhombic,0.8749,8.683243208,H2
mp-864715,HfInCo2,HfInCo2,160,199.96,77.4,0.29171,160,193.65,74.581,0.29828,160,75.991,196.81,0.29499,cubic,0,11.38323887,H1a
mp-6098,ErNi2B2C,ErNi2B2C,162.22,204.2,79.133,0.29021,161.89,186.58,71.329,0.30791,162.06,75.231,195.45,0.29899,tetragonal,0,8.21201523,H4
mp-862774,LiInPt2,LiInPt2,130,7.156,2.4,0.49083,130,359.63,173.08,0.038934,130,87.738,214.87,0.22452,cubic,0,13.23523927,H1a
mp-972324,Tc3As,Tc3As,231.22,99.775,34.933,0.42808,230.42,194.66,71.607,0.3592,230.82,53.27,148.39,0.39285,tetragonal,0,10.47613862,H4
mp-2142,Te2Os,Te2Os,129.33,218.37,89.6,0.21859,129.33,211.79,86.3,0.22707,129.33,87.95,215.09,0.22282,cubic,0.5231,10.91771289,H5
mp-29152,Zr2CoP,Zr2CoP,154.67,204.27,79.8,0.27988,153.98,195.79,76.002,0.28807,154.32,77.901,200.04,0.28396,monoclinic,0,6.72884998,H4
mp-861640,Ti2AlRe,Ti2AlRe,172,201.91,77.4,0.30435,172,175.1,65.809,0.33033,172,71.605,188.64,0.31721,cubic,0,8.247571004,H1a
mp-3349,Sr3Ti2O7,Sr3Ti2O7,140.22,209.5,83.733,0.25099,140.18,207.84,82.943,0.25289,140.2,83.338,208.67,0.25194,tetragonal,1.8758,4.905953367,H1a
mp-15987,Hf3(Cu2Si)2,Hf3(Cu2Si)2,148,211.91,84,0.26136,147.67,195.86,76.571,0.27895,147.84,80.286,203.94,0.27009,hexagonal,0,10.30199076,H4
mp-1017554,CdNi3N,CdNi3N,181.33,182.75,68.6,0.33203,181.33,181.69,68.152,0.333,181.33,68.376,182.22,0.33251,cubic,0,8.803847778,H1a
mp-31454,TaSbRu,TaSbRu,175.33,186.27,70.4,0.32294,175.33,186.14,70.345,0.32306,175.33,70.372,186.21,0.323,cubic,0.8956,11.28852753,H5
mp-781625,BaOsO3,BaOsO3,167.67,191.24,73,0.3099,167.67,191.05,72.917,0.31009,167.67,72.958,191.15,0.30999,cubic,0,9.289408159,H1a
mp-195,HoPt3,HoPt3,175.33,190.46,72.2,0.31896,175.33,181.74,68.465,0.32724,175.33,70.333,186.11,0.32309,cubic,0,17.91354393,H1a
mp-546200,TlIO3,TlIO3,137.67,210.24,84.4,0.24548,137.67,209.44,84.013,0.24645,137.67,84.207,209.84,0.24596,cubic,0.1399,8.206371515,H5
mp-973890,HoHfRu2,HoHfRu2,168.33,197.72,75.8,0.30424,168.33,183.46,69.577,0.31836,168.33,72.689,190.63,0.31126,cubic,0,12.47885938,H1a
mp-1025517,Ti2InN,Ti2InN,137.56,211.72,85.133,0.24347,136.74,208.46,83.655,0.24592,137.15,84.394,210.09,0.24469,hexagonal,0,6.371348349,H4
mp-21473,Gd(NiP)2,Gd(NiP)2,141.78,212.25,84.867,0.25049,141.72,202.31,80.149,0.26208,141.75,82.508,207.3,0.25626,tetragonal,0,7.824737449,H4
mp-7598,NbAs2,NbAs2,125.67,221.86,92,0.20576,123.33,212.53,87.62,0.21279,124.5,89.81,217.2,0.20923,monoclinic,0,7.264790745,H4
mp-861639,Ti2CoIr,Ti2CoIr,193.67,181.66,67.6,0.34366,193.67,165.14,60.808,0.35788,193.67,64.204,173.45,0.35074,cubic,0,10.03092136,H1a
mp-1743,Mo5As4,Mo5As4,144.89,217.33,86.933,0.25,144.54,192.8,75.449,0.27768,144.71,81.191,205.2,0.26367,tetragonal,0,8.352971019,H4
mp-574199,Sm(NiP)2,Sm(NiP)2,135.44,215.92,87.467,0.23431,134.83,205.81,82.614,0.24559,135.14,85.04,210.88,0.23991,tetragonal,0,7.524185765,H4
mp-1604,Pt3O4,Pt3O4,213.33,162.06,59,0.37339,213.33,157.23,57.087,0.37716,213.33,58.043,159.65,0.37527,cubic,0,11.85587847,H1a
mp-3886,Zr2AlC,Zr2AlC,124.22,217.74,90.133,0.20787,123.64,216.52,89.612,0.20813,123.93,89.873,217.13,0.208,hexagonal,0,5.238953262,H4
mp-15679,CoAs,CoAs,163.33,200.08,77.2,0.29584,163.15,186.31,71.126,0.30968,163.24,74.163,193.23,0.30272,hexagonal,0,8.040412292,H4
mp-29725,YBRh3,YBRh3,158.33,204.09,79.4,0.28517,158.33,188.55,72.433,0.30153,158.33,75.917,196.37,0.2933,cubic,0,9.061384682,H1a
mp-1868,VS,VS,148.67,214.6,85.2,0.25941,146.19,191.55,74.728,0.28163,147.43,79.964,203.16,0.27033,orthorhombic,0,5.071601389,H4
mp-1018721,HfO2,HfO2,212.33,226.38,85.6,0.32231,200.84,97.398,34.315,0.41917,206.58,59.958,164.01,0.36768,tetragonal,4.675,10.36227821,H4
mp-10440,Mg(P2Rh3)2,Mg(P2Rh3)2,205.22,171.29,62.933,0.36089,203.69,159.62,58.282,0.36939,204.46,60.608,165.47,0.36511,hexagonal,0,8.198945212,H4
mp-549490,KNb4O5F,KNb4O5F,144.89,224.78,90.533,0.24143,131.58,192.49,76.618,0.25618,138.23,83.575,208.67,0.24841,tetragonal,0,5.594730899,H4
mp-753629,Zr2O,Zr2O,153.33,202.7,79.2,0.27967,153.12,196.25,76.278,0.28639,153.23,77.739,199.48,0.28302,trigonal,0,6.716807304,H2
mp-571271,TmPt2,TmPt2,170,196.15,75,0.30769,170,181.12,68.481,0.32243,170,71.741,188.68,0.31502,cubic,0,16.57421154,H1a
mp-568371,Tm(SiRu)2,Tm(SiRu)2,154.56,202.79,79.133,0.28132,153.87,194.46,75.407,0.28937,154.21,77.27,198.63,0.28533,tetragonal,0,8.588176677,H4
mp-30798,NbZn2,NbZn2,140.78,206.98,82.467,0.25495,140.7,206.79,82.382,0.25505,140.74,82.424,206.89,0.255,hexagonal,0,8.152689758,H4
mp-861951,LiTaRh2,LiTaRh2,192.33,175.26,65,0.34813,192.33,171.43,63.426,0.35144,192.33,64.213,173.35,0.34979,cubic,0,11.26820804,H1a
mp-21469,VCo2Sn,VCo2Sn,175,196.88,75,0.3125,175,172.91,64.744,0.33532,175,69.872,185,0.32381,cubic,0,8.760355344,H1a
mp-1501,Al3Pt5,Al3Pt5,199.22,174.24,64.333,0.35423,198.48,163.45,59.97,0.36275,198.85,62.152,168.86,0.35847,orthorhombic,0,14.70581363,H4
mp-961713,ZrSnPt,ZrSnPt,130,213.4,87,0.22642,130,212.51,86.556,0.22756,130,86.778,212.95,0.22699,cubic,1.0084,10.15542863,H5
mp-2695,Sb2Os,Sb2Os,132,222.78,91.4,0.21871,126.96,203.57,82.568,0.23276,129.48,86.984,213.21,0.22556,orthorhombic,0.4039,10.88404457,H2
mp-10692,CoGe,CoGe,157,198.1,76.8,0.2897,157,195.01,75.413,0.29298,157,76.106,196.56,0.29134,cubic,0,8.747531271,H1a
mp-169,C,C,229.89,429.99,180.93,0.18826,4.9313,9.3145,3.9296,0.18519,117.41,92.431,219.65,0.1882,trigonal,1.773,1.880346849,H2
mp-8895,Ca2B4Rh5,Ca2B4Rh5,145.78,209.42,83.067,0.26057,141.8,199.8,78.961,0.26516,143.79,81.014,204.61,0.26283,orthorhombic,0,6.901627441,H4
mp-2596,NpN,NpN,145.33,212.98,84.8,0.25576,145.33,194.19,76.013,0.27731,145.33,80.407,203.66,0.26644,cubic,0,14.44650695,H1a
mp-6939,Sr(BIr)2,Sr(BIr)2,167.56,197.9,75.933,0.30315,166.9,181.3,68.728,0.31896,167.23,72.331,189.65,0.31099,orthorhombic,0,10.51861019,H4
mp-558411,Y2Zr2O7,Y2Zr2O7,132.33,212.06,86,0.23292,132.33,210.39,85.179,0.23502,132.33,85.589,211.23,0.23397,cubic,2.7028,5.255176748,H2
mp-2403,YPt3,YPt3,171.67,191.81,73,0.31378,171.67,181.48,68.545,0.3238,171.67,70.773,186.67,0.31877,cubic,0,15.88742813,H1a
mp-1008277,CrCo2As,CrCo2As,184.67,185.02,69.4,0.33301,184.67,170.85,63.474,0.34581,184.67,66.437,177.97,0.33938,cubic,0,8.391053381,H1a
mp-1118,SiNi2,SiNi2,197.44,175.88,65.067,0.35154,188.7,168.63,62.406,0.35106,193.07,63.736,172.25,0.3513,orthorhombic,0,7.347406647,H4
mp-15954,As2Rh,As2Rh,141.44,216.73,87.067,0.24462,135.9,197.83,78.666,0.25739,138.67,82.866,207.31,0.25085,monoclinic,0.3088,7.769297613,H4
mp-19953,ZrCuSi2,ZrCuSi2,129.56,220.29,90.533,0.21661,127.96,205.42,83.338,0.23244,128.76,86.935,212.89,0.22443,tetragonal,0,5.590178793,H4
mp-1025306,AlAsPt5,AlAsPt5,212.56,175.81,64.533,0.36215,205.79,145.56,52.659,0.38211,209.17,58.596,160.78,0.3719,tetragonal,0,15.95289561,H4
mp-864890,Hf2FeIr,Hf2FeIr,187.67,175.3,65.2,0.34432,187.67,175.3,65.199,0.34432,187.67,65.2,175.3,0.34432,cubic,0,14.89805768,H1a
mp-867795,ScNbTc2,ScNbTc2,186,179.93,67.2,0.33877,186,172.62,64.154,0.34533,186,65.677,176.28,0.34204,cubic,0,8.355342883,H1a
mp-2250,ZrNi2,ZrNi2,163.67,192.02,73.6,0.30446,163.67,190.03,72.727,0.30648,163.67,73.164,191.03,0.30547,cubic,0,8.190258283,H1a
mp-865091,HfMnRh2,HfMnRh2,177,190.21,72,0.3209,177,174.15,65.173,0.33602,177,68.587,182.22,0.32842,cubic,0,11.46597866,H1a
mp-760,FeSe2,FeSe2,117.67,223.07,94.2,0.18403,117.48,213.78,89.321,0.19672,117.58,91.761,218.45,0.19034,orthorhombic,0.4048,7.089857327,H2
mp-22546,CoAsRh,CoAsRh,195.67,171.66,63.4,0.35378,193.85,168.65,62.232,0.355,194.76,62.816,170.15,0.35439,orthorhombic,0,9.891077489,H4
mp-568286,C,C,231.11,428.07,179.67,0.19129,5.9071,7.4619,2.8934,0.28947,118.51,91.28,217.9,0.19356,orthorhombic,0.0412,1.884350402,H2
mp-13363,SiPt3,SiPt3,206.67,168.59,61.8,0.36404,203.58,157.28,57.349,0.37124,205.12,59.575,162.95,0.3676,monoclinic,0,16.71854151,H4
mp-696,SiPt,SiPt,174.44,188.64,71.467,0.31977,174.07,179.16,67.429,0.32847,174.26,69.448,183.91,0.3241,orthorhombic,0,12.05589018,H4
mp-2674,YPt2,YPt2,162.67,195.93,75.4,0.29925,162.67,186.76,71.356,0.30865,162.67,73.378,191.36,0.30393,cubic,0,13.90214309,H1a
mp-3678,Tb(SiRu)2,Tb(SiRu)2,147.22,205.63,81.133,0.26721,144.78,198.07,77.857,0.27198,146,79.495,201.85,0.26958,tetragonal,0,8.239158548,H4
mp-16287,NdRh3C,NdRh3C,179.67,180.2,67.6,0.33284,179.67,179.89,67.47,0.33312,179.67,67.535,180.05,0.33298,cubic,0,10.1388947,H1a
mp-8499,Ho2Cr2C3,Ho2Cr2C3,167.89,199.77,76.733,0.30169,166.34,176.75,66.805,0.3229,167.11,71.769,188.34,0.31216,monoclinic,0,8.354270408,H4
mp-2513,As2Pt,As2Pt,137.33,213.45,86,0.24096,137.33,200.45,79.75,0.25674,137.33,82.875,206.99,0.2488,cubic,0.285,10.27381326,H5
mp-13334,ZnSnO3,ZnSnO3,166.89,190.52,72.733,0.30973,163.68,188.45,72.03,0.30812,165.29,72.381,189.48,0.30893,trigonal,1.081,6.556764827,H2
mp-553875,Zr2SN2,Zr2SN2,157.78,201.04,78.067,0.28763,156.05,188.67,72.648,0.2985,156.91,75.357,194.88,0.29301,trigonal,0.7464,5.411710714,H2
mp-972087,ZrH3,ZrH3,130,221.75,91.2,0.21571,130,200.41,80.611,0.24307,130,85.905,211.2,0.22924,cubic,0,5.123156846,H1a
mp-974415,Re3Pb,Re3Pb,345.33,64.052,21.8,0.46909,345.33,57.961,19.687,0.47203,345.33,20.744,61.01,0.47056,cubic,0,18.77471281,H1a
mp-1025358,Er(Al2Mo)2,Er(Al2Mo)2,131.56,214.93,87.533,0.22771,131.46,205.57,82.935,0.23938,131.51,85.234,210.27,0.23351,tetragonal,0,6.416709115,H4
mp-22585,GeRh2,GeRh2,194,178.32,66.2,0.34681,189.78,164.86,60.826,0.35521,191.89,63.513,171.61,0.35095,orthorhombic,0,10.72598322,H4
mp-1670,MnPt,MnPt,168,201.74,77.6,0.29986,167.18,173.59,65.41,0.32694,167.59,71.505,187.81,0.31323,tetragonal,0,13.670936,H4
mp-1678,PuRh3,PuRh3,219,152.76,55.2,0.38374,219,152.67,55.161,0.38382,219,55.181,152.72,0.38378,cubic,0,14.26150624,H1a
mp-1022724,CaC4,CaC4,203.67,268.37,104.8,0.28039,82.905,136.94,55.909,0.2247,143.29,80.354,203.1,0.26376,tetragonal,0,2.93660929,H4
mp-4243,CaIrO3,CaIrO3,163.56,204.87,79.333,0.29123,159.01,178.32,67.903,0.31309,161.28,73.618,191.69,0.30191,orthorhombic,0,7.947016708,H4
mvc-4415,Ta2O5,Ta2O5,199.78,197.29,73.867,0.33541,198.3,134.28,48.403,0.38714,199.04,61.135,166.37,0.36069,orthorhombic,2.4175,7.371032361,H2
mp-20344,Fe3Ge,Fe3Ge,177.33,203.17,77.6,0.30906,177.33,158.16,58.517,0.35136,177.33,68.059,181.02,0.32987,cubic,0,8.303499087,H1a
mp-22300,FeCo2Ge,FeCo2Ge,168.33,207.18,80,0.29487,168.33,166.09,62.182,0.33555,168.33,71.091,186.95,0.3149,cubic,0,8.70347163,H1a
mp-2454,TiFe2,TiFe2,146.56,203.77,80.333,0.26827,146.31,197.94,77.652,0.27453,146.43,78.992,200.86,0.27139,hexagonal,0,6.884089525,H4