Material_ID,Formula,pretty_formula,KV ,EV ,GV ,PV ,KR ,ER ,GR ,PR ,bulk,shear,young,poisson,csyst,gap,density,y_cla
mp-1580,NbN,NbN,304.67,398.02,155.2,0.28227,304.67,281.79,104.69,0.34585,304.67,129.94,341.31,0.31329,cubic,0,8.045212307,H1a
mp-11607,Si3N4,Si3N4,252.33,398.29,161,0.23693,252.33,345.38,135.77,0.27188,252.33,148.39,372.2,0.25416,cubic,4.0968,3.411328171,H2
mp-161,B,B,196.78,401.49,173.07,0.15994,196.59,401.02,172.85,0.16003,196.69,172.96,401.25,0.15999,trigonal,0,2.306230648,H2
mp-569568,Ta3AlC2,Ta3AlC2,224.67,387.91,160,0.21223,223.81,385.97,159.15,0.21257,224.24,159.58,386.94,0.2124,hexagonal,0,12.25103348,H4
mp-862700,AlVOs2,AlVOs2,273,358.25,139.8,0.28129,273,357.6,139.5,0.28168,273,139.65,357.92,0.28149,cubic,0,13.8822113,H1a
mp-21336,TaFeP,TaFeP,263.89,366.23,144.33,0.2687,263.87,360.02,141.45,0.27261,263.88,142.89,363.13,0.27065,orthorhombic,0,11.64010843,H4
mp-999357,NbN,NbN,249.33,433.31,179,0.21036,243.84,309.12,119.93,0.28871,246.59,149.47,373.03,0.24787,hexagonal,0,7.978523223,H4
mp-1002183,TcB,TcB,344.33,314.32,116.6,0.34786,344.33,304.3,112.48,0.35271,344.33,114.54,309.32,0.35028,cubic,0,8.847273823,H1a
mp-861610,Tc3Pd,Tc3Pd,254.22,371.28,147.73,0.25659,251.09,364.36,144.8,0.25815,252.66,146.27,367.82,0.25736,hexagonal,0,11.35491008,H4
mp-865680,TiSiOs2,TiSiOs2,278.67,354.9,137.8,0.28774,278.67,348.48,134.9,0.29158,278.67,136.35,351.69,0.28966,cubic,0,13.72747452,H1a
mp-576,B13C2,B13C2,223.78,398.24,165.47,0.20339,221.62,371.33,152.09,0.22075,222.7,158.78,384.87,0.21197,trigonal,0,2.438647853,H2
mp-10015,SiOs,SiOs,295.33,361.35,139.4,0.29608,295.33,319.62,121.1,0.31963,295.33,130.25,340.67,0.30775,cubic,0,13.98854066,H1a
mp-864951,MnAlOs2,MnAlOs2,258.33,377.45,150.2,0.25649,258.33,350.01,137.34,0.27419,258.33,143.77,363.82,0.26528,cubic,0,14.23671499,H1a
mp-1007660,IrN,IrN,296.78,372.89,144.47,0.29059,265.12,326.23,125.97,0.29491,280.95,135.22,349.57,0.29262,tetragonal,0,15.04269674,H4
mp-8937,CrSi2,CrSi2,195.33,404.27,175,0.15506,194.35,392.95,168.93,0.16303,194.84,171.97,398.63,0.15902,tetragonal,0,5.015722574,H4
mp-1025192,Ta4C3,Ta4C3,296.33,346.62,132.8,0.30505,296.33,332.1,126.45,0.31322,296.33,129.62,339.38,0.30912,cubic,0,14.36363067,H1a
mp-2795,ZrC,ZrC,221,385.9,159.6,0.20897,221,384.26,158.76,0.21021,221,159.18,385.08,0.20959,cubic,0,6.50296405,H1a
mp-1007881,FeB,FeB,242.44,389.54,158.07,0.23221,236.1,359.74,144.35,0.24605,239.27,151.21,374.7,0.239,orthorhombic,0,6.894127542,H4
mp-15226,CrWN2,CrWN2,262.22,366.3,144.53,0.26718,262.21,354.54,139.07,0.27464,262.21,141.8,360.44,0.2709,trigonal,0,11.6302816,H2
mp-4984,SiB2Mo5,SiB2Mo5,271.89,360.51,140.93,0.27901,270.48,348.61,135.63,0.28519,271.18,138.28,354.57,0.28208,tetragonal,0,8.599559368,H4
mp-74,Rh,Rh,253.67,374.23,149.2,0.25412,253.67,356.09,140.63,0.26604,253.67,144.92,365.2,0.26005,cubic,0,12.0346125,H1a
mp-531611,Mg(AlB14)2,Mg(AlB14)2,191.11,407.95,178.27,0.14423,188.58,390.81,169.24,0.15461,189.85,173.75,399.41,0.14936,triclinic,0.7351,2.591766258,H5
mp-754333,TiO,TiO,228.33,379.6,155.2,0.22292,228.28,379.45,155.14,0.22296,228.31,155.17,379.52,0.22294,hexagonal,0,5.409794701,H4
mp-641539,Si3N4,Si3N4,256.11,411.68,167.07,0.23209,253.84,313.06,120.92,0.29445,254.98,144,363.55,0.26236,orthorhombic,3.5541,3.833340559,H2
mp-5508,Th(SiPd)2,Th(SiPd)2,564.56,164.68,56.733,0.45138,538.55,148.2,50.958,0.45414,551.56,53.846,156.45,0.45273,tetragonal,0,9.212857952,H4
mp-2449,NbRh3,NbRh3,248.67,375.5,150.4,0.24833,248.67,357.95,142.04,0.26009,248.67,146.22,366.77,0.25418,cubic,0,11.1508944,H1a
mp-952,MoPt2,MoPt2,271.78,364.26,142.67,0.27662,271.43,338.24,130.87,0.29231,271.6,136.77,351.33,0.28441,orthorhombic,0,17.39009884,H4
mp-999502,MoPt,MoPt,275,353.79,137.6,0.28558,274.54,343.38,132.94,0.29154,274.77,135.27,348.6,0.28855,orthorhombic,0,15.63834803,H4
mp-1008279,Co3Mo,Co3Mo,269.11,368.05,144.67,0.27206,269.11,335.73,129.92,0.29207,269.11,137.29,352.02,0.28199,cubic,0,9.762834869,H1a
mp-977353,Ta2ReMo,Ta2ReMo,290.33,340.26,130.4,0.30467,290.33,335.12,128.14,0.30763,290.33,129.27,337.69,0.30615,cubic,0,16.03517427,H1a
mp-30866,Rh3W,Rh3W,283.22,343.95,132.53,0.2976,282.18,340.83,131.22,0.29869,282.7,131.88,342.39,0.29814,hexagonal,0,14.09088581,H4
mp-7892,Mn2AlB2,Mn2AlB2,220.67,389.29,161.4,0.20598,214.53,372.81,154,0.21037,217.6,157.7,381.05,0.20814,orthorhombic,0,5.78635723,H4
mp-1021503,SiO2,SiO2,267,407.97,163.8,0.24534,267,290.17,110.01,0.31887,267,136.9,350.76,0.28105,cubic,4.5852,3.616399582,H2
mp-568595,Re4Si7,Re4Si7,212.33,386.32,161.4,0.19677,206.98,379.88,159.06,0.19411,209.66,160.23,383.1,0.19546,monoclinic,0.0285,10.16582475,H4
mp-15702,MgCN2,MgCN2,258.33,395.8,159,0.24465,233.25,329.05,130.07,0.26488,245.79,144.54,362.54,0.25417,tetragonal,3.8457,3.429002835,H4
mp-2633,GeO2,GeO2,236.33,368.14,148.4,0.24038,236.33,368.1,148.38,0.24041,236.33,148.39,368.12,0.24039,cubic,1.4678,6.419358244,H5
mp-12585,CrRh3,CrRh3,230,382.9,156.6,0.22254,230,360.25,145.38,0.23895,230,150.99,371.65,0.23069,cubic,0,10.8454627,H1a
mp-990076,P2O5,P2O5,239.78,442.73,185.67,0.19227,225.12,291.6,113.54,0.28411,232.45,149.6,369.53,0.23504,orthorhombic,0,3.937857021,H4
mp-8615,NbBO4,NbBO4,259.44,377.85,150.27,0.25727,244.98,335.92,132.1,0.27147,252.21,141.18,356.94,0.26413,tetragonal,2.4676,5.028562069,H4
mp-982070,VIr,VIr,262.33,354.84,139.2,0.27456,261.79,346.39,135.36,0.27947,262.06,137.28,350.62,0.27701,orthorhombic,0,14.46604198,H4
mp-8634,Mn,Mn,279.67,356.41,138.4,0.2876,279.67,320.99,122.64,0.30871,279.67,130.52,338.84,0.29807,cubic,0,8.441936758,H1a
mp-1352,ZrN,ZrN,246.67,370,148,0.25,246.67,347.84,137.49,0.26497,246.67,142.75,358.99,0.25744,cubic,0,7.098978293,H1a
mp-865022,MnIr3,MnIr3,265,359.71,141.2,0.27377,263.37,336.61,130.78,0.28698,264.19,135.99,348.22,0.28032,hexagonal,0,18.80669977,H4
mp-864650,Ta2OsW,Ta2OsW,272.33,345.36,134,0.28864,272.33,340.06,131.61,0.29188,272.33,132.81,342.71,0.29026,cubic,0,18.39478324,H1a
mp-10909,AlRe2,AlRe2,256.22,374.28,148.93,0.25654,254.03,331.87,129.41,0.28226,255.13,139.17,353.27,0.26922,tetragonal,0,15.20720043,H4
mp-979289,TaW3,TaW3,255.33,353.81,139.4,0.26905,255.33,352.23,138.66,0.27009,255.33,139.03,353.02,0.26957,cubic,0,18.29084553,H1a
mp-3803,Ta4AlC3,Ta4AlC3,237.33,363.88,146.2,0.24447,237.18,362.69,145.64,0.24514,237.26,145.92,363.29,0.2448,hexagonal,0,12.6590861,H4
mp-20868,Fe2W,Fe2W,261.11,353.43,138.67,0.2744,257.44,345.75,135.46,0.27617,259.28,137.06,349.59,0.27528,hexagonal,0,13.27909042,H4
mp-7088,Ta2C,Ta2C,255.89,367.87,145.93,0.2604,255.86,334.81,130.59,0.28191,255.88,138.26,351.48,0.27106,trigonal,0,14.76867144,H2
mp-8044,V2PC,V2PC,227.56,379.22,155.13,0.22225,226.31,355.81,143.71,0.23796,226.93,149.42,367.59,0.23003,hexagonal,0,5.394856714,H4
mp-12595,MoRh,MoRh,266.56,348.55,135.93,0.28206,265.73,338.5,131.44,0.28769,266.14,133.69,343.54,0.28487,orthorhombic,0,11.08878698,H4
mp-1143,Al2O3,Al2O3,231.78,368.66,149.27,0.2349,231.43,359.43,144.79,0.24116,231.61,147.03,364.05,0.23802,trigonal,6.0436,3.873498339,H2
mp-865499,V2TcOs,V2TcOs,277.67,336,129.4,0.29832,277.67,335.26,129.07,0.29876,277.67,129.23,335.63,0.29854,cubic,0,11.72046052,H1a
mp-1473,Fe7W6,Fe7W6,270.78,343.45,133.27,0.2886,270.31,336.67,130.25,0.29242,270.54,131.76,340.07,0.2905,trigonal,0,14.55754074,H2
mp-3802,Ta4AlC3,Ta4AlC3,235.22,365.66,147.33,0.24091,232.06,359.28,144.64,0.24197,233.64,145.99,362.47,0.24144,hexagonal,0,12.60107873,H4
mp-2319,P2Os,P2Os,212.67,389.11,162.8,0.19505,205.85,362.79,150.38,0.20626,209.26,156.59,375.98,0.20054,orthorhombic,0.8561,9.334691674,H2
mp-972326,TcPt3,TcPt3,266.11,352.69,137.87,0.27911,264.19,330.36,127.89,0.29159,265.15,132.88,341.58,0.2853,tetragonal,0,18.53659966,H4
mp-1014303,Cr3N2,Cr3N2,239.56,211.41,78.133,0.35291,239.43,482.79,207.39,0.16394,239.5,142.76,357.3,0.25135,tetragonal,0,6.45226806,H4
mp-567925,MoC,MoC,321.89,325.73,122.33,0.33134,314.12,286.23,106.16,0.34813,318.01,114.24,306.08,0.33958,hexagonal,0,8.456056464,H4
mp-2542,BeO,BeO,208.11,376.49,157.07,0.19849,208.11,371.97,154.72,0.2021,208.11,155.89,374.23,0.20029,hexagonal,7.4631,2.967498763,H1b
mp-21495,CrFeP,CrFeP,238.78,358.58,143.47,0.24971,237.59,355.41,142.09,0.25069,238.18,142.78,357,0.2502,orthorhombic,0,6.917186717,H4
mp-2678,VPt,VPt,243,374.45,150.6,0.24318,242.91,333.09,130.99,0.27146,242.96,140.79,354,0.25716,tetragonal,0,14.25905358,H4
mp-1938,Al2O3,Al2O3,230.67,364.14,147.2,0.23689,230.6,355.94,143.21,0.24275,230.64,145.2,360.05,0.23981,orthorhombic,5.3131,3.953068685,H2
mp-1139,Co3Mo,Co3Mo,260.33,345.31,135,0.27893,260.29,337.64,131.5,0.2838,260.31,133.25,341.48,0.28136,hexagonal,0,9.788205563,H4
mp-11917,Mg(BeN)2,Mg(BeN)2,185,389.71,169.6,0.14891,184.91,377.81,162.93,0.15945,184.95,166.26,383.79,0.15416,trigonal,4.073,3.025453278,H2
mp-2311,NbO,NbO,243,367,147,0.24829,243,336.64,132.63,0.26911,243,139.81,351.94,0.25861,cubic,0,7.010467016,H1a
mp-1841,SiIr3,SiIr3,299.33,318.5,120.4,0.32266,298.3,313.54,118.33,0.32482,298.82,119.37,316.02,0.32374,tetragonal,0,17.86985518,H4
mp-866141,TiFe2Si,TiFe2Si,228.67,360.32,145.6,0.23737,228.67,359.43,145.16,0.23803,228.67,145.38,359.88,0.2377,cubic,0.4023,6.758127762,H5
mp-865506,VSiOs2,VSiOs2,277.33,328.74,126.2,0.30244,277.33,328.61,126.14,0.30252,277.33,126.17,328.67,0.30248,cubic,0,14.2498997,H1a
mp-1009655,CaC2,CaC2,199.89,398.69,170.73,0.16758,183.84,357.58,152.06,0.17582,191.86,161.39,378.15,0.17151,hexagonal,0,3.810600725,H4
mp-11517,NbRu3,NbRu3,270.33,347.64,135.2,0.28567,270.33,317.27,121.62,0.3044,270.33,128.41,332.57,0.29496,cubic,0,11.00997244,H1a
mp-1019380,Al3BN4,Al3BN4,216.33,381.2,158,0.20632,216.33,348.57,141.53,0.23146,216.33,149.76,365.05,0.21876,cubic,3.6069,3.267975538,H2
mp-999377,NbC,NbC,251,352.45,139.2,0.26597,245.7,339.26,133.58,0.26987,248.35,136.39,345.86,0.2679,hexagonal,0,7.244865688,H4
mp-9985,NbNiB,NbNiB,239.22,360.91,144.53,0.24855,239.01,341.84,135.47,0.26163,239.12,140,351.42,0.25505,orthorhombic,0,7.940039604,H4
mp-1915,Fe2B,Fe2B,227.78,358.99,145.07,0.23732,226.48,357.68,144.6,0.23678,227.13,144.83,358.34,0.23705,tetragonal,0,7.490316494,H4
mp-1007693,HfOs3,HfOs3,302,322.1,121.8,0.32224,302,299.81,112.33,0.33454,302,117.06,311.01,0.32836,cubic,0,19.82876287,H1a
mp-8939,Si2W,Si2W,221.33,364.28,148.6,0.2257,220.47,359.03,146.11,0.22859,220.9,147.36,361.65,0.22714,hexagonal,0.1625,9.735244213,H1a
mp-1019319,TcN,TcN,245.67,357.18,142,0.25768,245.67,336.45,132.28,0.27174,245.67,137.14,346.87,0.26467,cubic,0,8.371880219,H1a
mp-801,Mo3Os,Mo3Os,291.67,327.21,124.6,0.31303,291.67,306.72,115.77,0.32473,291.67,120.18,317.01,0.31885,cubic,0,12.67616815,H1a
mp-776490,Al2O3,Al2O3,227.89,361.19,146.13,0.23584,227.27,352.06,141.75,0.24182,227.58,143.94,356.64,0.23882,orthorhombic,5.4415,3.910433085,H2
mp-867788,TaGaOs2,TaGaOs2,273.67,328.61,126.4,0.29987,273.67,326.56,125.49,0.30112,273.67,125.95,327.58,0.3005,cubic,0,17.18057957,H1a
mp-865278,NbAlOs2,NbAlOs2,262.33,334.27,129.8,0.28763,262.33,334.14,129.74,0.28771,262.33,129.77,334.21,0.28767,cubic,0,13.66563861,H1a
mp-2857,ScN,ScN,199.67,370.92,155.8,0.19038,199.67,369.33,154.96,0.19171,199.67,155.38,370.13,0.19104,cubic,0.325,4.245782373,H5
mp-291,TiOs,TiOs,248.33,344.59,135.8,0.26873,248.33,338.98,133.19,0.2725,248.33,134.5,341.79,0.27061,cubic,0,13.33376714,H1a
mp-570784,Hf2Al3C4,Hf2Al3C4,198.11,372.33,156.87,0.18677,195.83,369.53,155.86,0.1855,196.97,156.36,370.93,0.18613,hexagonal,0,7.559589203,H4
mp-22087,TaRu3C,TaRu3C,262.33,335.59,130.4,0.28679,262.33,329.89,127.82,0.29041,262.33,129.11,332.75,0.2886,cubic,0,12.35123666,H1a
mp-2880,LuB2Os3,LuB2Os3,259.89,337.64,131.53,0.28347,259.87,330.81,128.44,0.28784,259.88,129.99,334.23,0.28565,hexagonal,0,15.92934743,H4
mp-7130,ScRu3C,ScRu3C,233.67,355.49,142.6,0.24644,233.67,344.2,137.19,0.25449,233.67,139.89,349.86,0.25045,cubic,0,8.758367905,H1a
mp-30787,MoRh3,MoRh3,269,329.64,127.2,0.29576,268.18,326.54,125.88,0.29706,268.59,126.54,328.09,0.29641,hexagonal,0,11.60522428,H4
mp-4253,V(CrC)2,V(CrC)2,291.11,355.42,137.07,0.29652,290.9,269.7,100.23,0.34547,291,118.65,313.35,0.32053,orthorhombic,0,6.407039229,H4
mp-1016928,MgSiO3,MgSiO3,209,372.45,154.8,0.20299,209,354.64,145.68,0.2172,209,150.24,363.59,0.21005,cubic,2.5702,3.79871771,H2
mp-865810,TiTc2W,TiTc2W,263.33,337.1,131,0.28664,263.33,324.74,125.43,0.29447,263.33,128.22,330.94,0.29055,cubic,0,11.69356081,H1a
mp-864989,Mn2AlRe,Mn2AlRe,259.33,335.04,130.4,0.28468,259.33,331.47,128.78,0.28697,259.33,129.59,333.26,0.28582,cubic,0,10.75936713,H1a
mp-1222,CrSi2,CrSi2,195.78,370.66,156.47,0.18446,195.37,369.24,155.8,0.185,195.57,156.13,369.95,0.18473,hexagonal,0.3863,5.020764902,H1a
mp-542316,Co2Mo3N,Co2Mo3N,270.33,327.62,126.2,0.29802,270.33,321.39,123.43,0.30186,270.33,124.82,324.51,0.29993,cubic,0,9.403080552,H1a
mp-24287,CrH,CrH,238,348.21,138.6,0.25616,238,340.79,135.09,0.26135,238,136.85,344.51,0.25875,cubic,0,6.523424855,H1a
mp-567747,Co7Mo6,Co7Mo6,264,332.79,129,0.2899,263.71,322.92,124.59,0.29591,263.86,126.8,327.87,0.2929,trigonal,0,9.868428002,H2
mp-11572,TaTc,TaTc,254.67,342.45,134.2,0.27589,254.67,324.83,126.16,0.28741,254.67,130.18,333.68,0.28162,cubic,0,14.25820444,H1a
mp-974370,PtRh3,PtRh3,273.33,329.46,126.8,0.29911,273.33,313.57,119.79,0.3088,273.33,123.3,321.54,0.30394,cubic,0,14.27507681,H1a
mp-3081,BeAl2O4,BeAl2O4,214.78,360.01,147.47,0.22064,214.21,354.57,144.83,0.22412,214.49,146.15,357.29,0.22238,orthorhombic,6.1177,3.599681603,H2
mp-10732,ThTaN3,ThTaN3,242.33,350.91,139.4,0.25866,242.33,330.55,129.86,0.27266,242.33,134.63,340.79,0.26562,cubic,0.4422,11.25291583,H5
mp-90,Cr,Cr,259,341.12,133.2,0.28049,259,319.44,123.39,0.29444,259,128.29,330.34,0.28743,cubic,0,7.274080971,H1a
mp-3103,Nb4AlC3,Nb4AlC3,216.44,358.13,146.27,0.22423,214.78,354.75,144.83,0.22472,215.61,145.55,356.44,0.22447,hexagonal,0,6.848877701,H4
mp-800,TmB2,TmB2,173.33,378.87,166.8,0.1357,173.18,376.88,165.69,0.1373,173.26,166.25,377.88,0.1365,hexagonal,0,9.109008829,H4
mp-1281,VIr,VIr,274.33,336.35,129.8,0.29565,274.28,303.37,115.29,0.31566,274.31,122.55,319.99,0.30558,tetragonal,0,14.48450249,H4
mp-865665,TiReTc2,TiReTc2,273,320.82,123,0.30414,273,320.38,122.81,0.30441,273,122.9,320.6,0.30427,cubic,0,11.96773784,H1a
mp-8938,Si2Mo,Si2Mo,207.78,361.68,149.47,0.20989,206.85,358.96,148.24,0.21077,207.31,148.85,360.32,0.21033,hexagonal,0.2167,6.20420073,H1a
mp-717,B2O3,B2O3,201.56,373.03,156.53,0.19154,190.62,356.71,150.12,0.18812,196.09,153.32,364.87,0.18987,orthorhombic,8.3669,3.015748953,H2
mp-865485,V2CrOs,V2CrOs,265,330.3,127.8,0.29226,265,317.75,122.2,0.30016,265,125,324.05,0.2962,cubic,0,10.87437131,H1a
mp-862798,Pt3W,Pt3W,284.56,327.41,125.13,0.30823,284.43,295.07,111.17,0.3271,284.49,118.15,311.35,0.3176,tetragonal,0,20.49932404,H4
mp-9987,Nb2PC,Nb2PC,224.67,355.95,144,0.23594,222.78,338.95,135.97,0.24642,223.72,139.98,347.48,0.24114,hexagonal,0,6.873148659,H4
mp-1044,UIr3,UIr3,268.67,319.69,122.8,0.30168,268.67,318.6,122.32,0.30236,268.67,122.56,319.15,0.30202,cubic,0,20.34310288,H1a
mp-10196,Ta2N,Ta2N,273.33,332.15,128,0.29747,271.76,299.4,113.72,0.31638,272.55,120.86,315.89,0.30683,trigonal,0,15.27422585,H2
mp-129,Mo,Mo,262.67,326.78,126.4,0.29265,262.67,316.55,121.83,0.29914,262.67,124.12,321.68,0.29589,cubic,0,10.02490812,H1a
mp-569376,2-Feb,2-Feb,272.33,331.99,128,0.29683,248.29,313.94,121.75,0.28927,260.31,124.88,322.98,0.29321,hexagonal,0,5.896205533,H4
mp-30438,Be2Cr,Be2Cr,183.11,367.88,157.87,0.16516,183.09,366.6,157.17,0.16629,183.1,157.52,367.24,0.16572,hexagonal,0,4.407724506,H4
mp-1677,Be2Mo,Be2Mo,198.56,359.35,149.93,0.19836,198.56,359.15,149.83,0.19853,198.56,149.88,359.25,0.19845,hexagonal,0,6.043401186,H4
mp-1275,SiMo3,SiMo3,252,333.21,130.2,0.27962,252,321.72,124.97,0.28722,252,127.58,327.49,0.28341,cubic,0,8.812461272,H1a
mp-21316,TaSiIr,TaSiIr,259.11,327.2,126.87,0.28954,258.31,318.13,122.85,0.29474,258.71,124.86,322.67,0.29213,orthorhombic,0,14.82714489,H4
mp-865681,TiSiRu2,TiSiRu2,243,335.29,132,0.27003,243,329.37,129.26,0.27409,243,130.63,332.34,0.27206,cubic,0.0039,8.522604191,H5
mp-30741,PaIr3,PaIr3,250.67,328.58,128.2,0.28153,250.67,326.02,127.03,0.28323,250.67,127.62,327.3,0.28238,cubic,0,19.6219625,H1a
mp-10059,ZrCo3B2,ZrCo3B2,244.44,348.57,138.07,0.26234,244.43,312.8,121.55,0.28672,244.44,129.81,330.86,0.27441,hexagonal,0,7.709830136,H4
mp-31219,Si3W5,Si3W5,268.22,319.47,122.73,0.30149,266.26,312.55,119.81,0.30436,267.24,121.27,316.01,0.30292,tetragonal,0,14.26046363,H4
mp-862446,TaAlRu2,TaAlRu2,239.33,333.65,131.6,0.26766,239.33,333.14,131.36,0.26801,239.33,131.48,333.39,0.26783,cubic,0.0336,11.46113497,H5
mp-866161,VRh3,VRh3,251.56,330.8,129.13,0.28083,251.27,320.47,124.46,0.28743,251.41,126.8,325.65,0.28412,hexagonal,0,10.79492783,H4
mp-972970,ScSiRh2,ScSiRh2,195,31.813,10.8,0.47281,195,580.7,289.29,0.0036765,195,150.04,358.24,0.19381,cubic,0,7.86456509,H1a
mp-761034,Hf5N5O2,Hf5N5O2,243.56,343.41,135.73,0.265,238.86,318.45,124.61,0.2778,241.21,130.17,330.98,0.27131,monoclinic,0,11.77379941,H4
mp-12778,VOs,VOs,283.67,310.89,118,0.31734,283.67,296.56,111.85,0.32576,283.67,114.92,303.75,0.32153,cubic,0,14.48659462,H1a
mp-1774,ErB2,ErB2,170.78,369.71,162.27,0.13919,170.78,368.06,161.32,0.1408,170.78,161.79,368.88,0.13999,hexagonal,0,8.881021436,H4
mp-2540,VTc,VTc,253.67,331.78,129.4,0.28201,253.67,313.14,120.97,0.29425,253.67,125.19,322.51,0.2881,cubic,0,8.926404522,H1a
mp-867249,TaAlFe2,TaAlFe2,222,341.7,137.4,0.24347,222,341.7,137.4,0.24347,222,137.4,341.7,0.24347,cubic,0.3204,10.23769221,H5
mp-10373,Cr3PdN,Cr3PdN,224.67,345.7,139,0.24354,224.67,332.85,132.81,0.25308,224.67,135.91,339.3,0.24829,cubic,0,8.106619033,H1a
mp-27693,Sc(BC)2,Sc(BC)2,215.33,407.5,172,0.1846,164.76,308.43,129.81,0.18801,190.05,150.91,357.97,0.18607,orthorhombic,0,3.234134676,H4
mp-862622,BeRu2W,BeRu2W,270.33,309.95,118.4,0.30891,270.33,309.95,118.4,0.30891,270.33,118.4,309.95,0.30891,cubic,0,12.19253183,H1a
mp-10065,UFe3B2,UFe3B2,237.11,347.71,138.47,0.25559,227.9,318.75,125.8,0.2669,232.51,132.13,333.27,0.26111,hexagonal,0,11.0362212,H4
mp-865791,CrSiRu2,CrSiRu2,240.67,329.2,129.4,0.27202,240.67,326.8,128.29,0.27368,240.67,128.85,328,0.27285,cubic,0,8.980895279,H1a
mp-1431,MnSi,MnSi,209.67,346.34,141.4,0.22469,209.67,346.34,141.4,0.22469,209.67,141.4,346.34,0.22469,cubic,0,5.972686451,H1a
mp-22262,CoMoP,CoMoP,258.44,320.41,123.87,0.29337,257.72,313.01,120.61,0.29758,258.08,122.24,316.71,0.29547,orthorhombic,0,8.420895851,H4
mp-11191,CrSi2,CrSi2,181.44,361.33,154.67,0.1681,181.09,359.99,154.02,0.16868,181.27,154.34,360.66,0.16839,hexagonal,0.4093,5.021470955,H1a
mp-865025,HfTaRe2,HfTaRe2,272.67,309.37,118,0.3109,272.67,303.97,115.65,0.3142,272.67,116.82,306.67,0.31255,cubic,0,17.86085784,H1a
mp-981365,V2ReRu,V2ReRu,250.33,320.17,124.4,0.28684,250.33,320.11,124.38,0.28687,250.33,124.39,320.14,0.28686,cubic,0,11.6595433,H1a
mp-1025075,TbB2Ir3,TbB2Ir3,251.44,328.88,128.27,0.28201,250.38,309.31,119.51,0.2941,250.91,123.89,319.14,0.28801,hexagonal,0,15.33039639,H4
mp-1024990,LuB2Ir3,LuB2Ir3,248.11,329.11,128.67,0.27892,247.54,312.19,121.02,0.2898,247.83,124.85,320.69,0.28433,hexagonal,0,15.92659847,H4
mp-865026,Mn2VSi,Mn2VSi,239,329.28,129.6,0.27038,239,322.98,126.68,0.27477,239,128.14,326.14,0.27257,cubic,0,6.869624059,H1a
mp-5778,AlVFe2,AlVFe2,217.67,338.91,136.6,0.2405,217.67,338.75,136.53,0.24062,217.67,136.56,338.83,0.24056,cubic,0,6.77332773,H1a
mp-2853,GaN,GaN,209,372.45,154.8,0.20299,209,314.03,125.66,0.24958,209,140.23,343.79,0.22584,cubic,0.5091,7.141042175,H5
mp-32679,Nb10C7,Nb10C7,228.33,338.74,135.2,0.25274,226.56,326.99,129.82,0.25945,227.44,132.51,332.88,0.25607,monoclinic,0,7.470323189,H4
mp-569250,VIr,VIr,273,313.08,119.6,0.30886,272.89,294.01,111.33,0.32043,272.94,115.47,303.59,0.31462,orthorhombic,0,14.5275897,H4
mp-20027,FeP2,FeP2,182.56,372.79,160.73,0.15966,177.29,344.05,146.21,0.17657,179.92,153.47,358.49,0.16793,orthorhombic,0.4713,5.127712821,H2
mp-7851,TaCo3,TaCo3,246.67,323.44,126.2,0.28146,246.65,316.82,123.19,0.28592,246.66,124.69,320.13,0.28368,trigonal,0,12.34903254,H2