Material_ID,Formula,pretty_formula,KV ,EV ,GV ,PV ,KR ,ER ,GR ,PR ,bulk,shear,young,poisson,csyst,gap,density,y_cla
mp-1849,Mn2P,Mn2P,194.44,255.37,99.667,0.28111,193.77,251.47,97.947,0.28371,194.11,98.807,253.42,0.28241,hexagonal,0,6.706865773,H4
mp-1383,UCo2,UCo2,230.33,235.12,88.4,0.32987,230.33,224.38,83.871,0.33764,230.33,86.135,229.77,0.33374,cubic,0,14.30488985,H1a
mp-865669,TiSiTc2,TiSiTc2,229.33,233.59,87.8,0.33024,229.33,227.12,85.067,0.33494,229.33,86.434,230.36,0.33259,cubic,0,8.054004966,H1a
mp-10069,Ce(P3Ru)4,Ce(P3Ru)4,166.67,269.69,109.6,0.23031,166.67,269.68,109.6,0.23032,166.67,109.6,269.68,0.23032,cubic,0.1718,5.744094424,H5
mp-365,MgB4,MgB4,162.11,307.86,130.07,0.18348,156.46,237.71,95.33,0.24679,159.29,112.7,273.58,0.21375,orthorhombic,0.365,2.504415512,H2
mp-3223,ThB2Ru3,ThB2Ru3,217.22,242.62,92.333,0.31384,216.96,233.46,88.388,0.32066,217.09,90.36,238.05,0.31724,hexagonal,0,11.23155794,H4
mp-1008642,UC2,UC2,194.67,271.72,107.2,0.26736,194.67,232.66,89.427,0.30081,194.67,98.314,252.44,0.28387,cubic,0,11.13374399,H1a
mp-636320,TiGaFe2,TiGaFe2,190,262.14,103.2,0.27005,190,248.46,96.897,0.28206,190,100.05,255.33,0.27603,cubic,0,7.798866127,H1a
mp-12571,HfBeSi,HfBeSi,148.33,282.05,119.2,0.18309,147.02,276.38,116.45,0.18668,147.68,117.82,279.22,0.18488,hexagonal,0,8.428040443,H4
mp-763,MgB2,MgB2,152.78,301.03,128.47,0.17161,144.09,255.84,106.24,0.20406,148.43,117.35,278.63,0.18714,hexagonal,0,2.637300884,H4
mp-865650,Ti2TcRu,Ti2TcRu,206,251.97,97.2,0.29614,206,236.53,90.374,0.30863,206,93.787,244.29,0.30236,cubic,0,8.257824617,H1a
mp-984718,BAs,BAs,131.56,289.5,127.73,0.13323,131.49,283.49,124.27,0.14066,131.52,126,286.51,0.13693,hexagonal,1.1792,5.097157656,H1a
mp-567513,Ho(SiIr)2,Ho(SiIr)2,175.78,266.16,106.67,0.24763,175.12,260.36,103.96,0.25221,175.45,105.31,263.27,0.24991,tetragonal,0,12.13689631,H4
mp-13475,CeSi2Ir3,CeSi2Ir3,183.89,264.07,104.73,0.26066,182.64,252.9,99.627,0.26922,183.26,102.18,258.5,0.26491,orthorhombic,0,12.89727285,H4
mp-7790,Ti2N,Ti2N,181.22,266.81,106.33,0.25462,176.5,255.47,101.47,0.25877,178.86,103.9,261.14,0.25666,tetragonal,0,4.762650662,H4
mp-2802,HfRu,HfRu,197.33,256.21,99.8,0.28361,197.33,243.16,93.911,0.29463,197.33,96.856,249.71,0.28909,cubic,0,13.59548934,H1a
mp-21455,EuAlO3,EuAlO3,175.22,266.99,107.13,0.24605,175.05,259.52,103.56,0.25291,175.14,105.35,263.26,0.24947,orthorhombic,0,7.023941446,H4
mp-2732,PRh2,PRh2,234.67,258.54,98.2,0.31638,234.67,190.28,69.706,0.36486,234.67,83.953,225.02,0.34018,cubic,0,9.13270352,H1a
mp-864957,MnSbRu2,MnSbRu2,205,249.11,96,0.29747,205,239.26,91.636,0.30548,205,93.818,244.2,0.30146,cubic,0,10.34878796,H1a
mp-1025123,UNi2B2C,UNi2B2C,209.33,264.57,102.6,0.28935,208.46,218.04,82.236,0.32568,208.9,92.418,241.62,0.30722,tetragonal,0,10.07711853,H4
mp-865011,Mn2NbAl,Mn2NbAl,190.33,258.76,101.6,0.27342,190.33,248.11,96.712,0.28274,190.33,99.156,253.45,0.27806,cubic,0,7.002486675,H1a
mp-761390,TaFeO4,TaFeO4,200.67,270.39,106,0.27542,197.52,224.71,85.741,0.31039,199.09,95.871,247.83,0.29253,tetragonal,0,7.256570697,H4
mp-867821,TaTiMn2,TaTiMn2,217.67,247.89,94.6,0.31019,217.67,223.42,84.059,0.32893,217.67,89.33,235.74,0.31949,cubic,0,10.17393415,H1a
mp-510536,MoO2,MoO2,220.33,263.29,101.2,0.30084,216.59,206.2,76.866,0.34133,218.46,89.033,235.15,0.3206,tetragonal,0.4718,5.80242716,H1a
mp-861641,Ti2CoRe,Ti2CoRe,196,251.56,97.8,0.28609,196,247.81,96.105,0.28928,196,96.952,249.69,0.28768,cubic,0,9.912983757,H1a
mp-22396,Nb4SiNi,Nb4SiNi,190.56,253.88,99.333,0.27794,190.36,252.43,98.684,0.27899,190.46,99.009,253.16,0.27847,tetragonal,0,7.835388787,H4
mp-867262,ScTc3,ScTc3,214,240.95,91.8,0.31235,214,235.18,89.297,0.31684,214,90.549,238.07,0.31459,cubic,0,9.058684621,H1a
mp-977382,Ta2VRu,Ta2VRu,232,230.58,86.4,0.33436,232,221.56,82.62,0.34083,232,84.51,226.08,0.33759,cubic,0,13.4734766,H1a
mp-776097,HfO2,HfO2,200.78,259.2,100.87,0.28484,199.19,234.61,89.981,0.30369,199.98,95.424,246.99,0.29416,orthorhombic,4.1383,9.21779801,H2
mp-10712,ScRh3C,ScRh3C,214.67,239.2,91,0.31429,214.67,235.59,89.438,0.31709,214.67,90.219,237.4,0.31568,cubic,0,8.768933353,H1a
mp-13082,Mn2CoSi,Mn2CoSi,211.67,272.51,106,0.28543,211.67,204.85,76.509,0.3387,211.67,91.254,239.36,0.31152,cubic,0,7.34194619,H1a
mp-976923,NaReO3,NaReO3,269,214.87,78.6,0.36687,269,185.72,67.051,0.38493,269,72.826,200.39,0.37584,cubic,0,7.268790548,H1a
mp-945,NiPt,NiPt,213.89,248.09,94.933,0.30668,213.26,227.82,86.168,0.32195,213.57,90.551,238.01,0.31426,tetragonal,0,15.71533577,H4
mp-1024999,HoCr2Si2C,HoCr2Si2C,160.89,274.56,112.93,0.21558,158.34,267.56,109.8,0.21838,159.62,111.37,271.06,0.21697,tetragonal,0,6.837675346,H4
mp-7048,Al2O3,Al2O3,187,272.12,108.2,0.25747,184.2,238.98,93.079,0.28377,185.6,100.64,255.7,0.27038,monoclinic,4.6054,3.509944358,H2
mp-865193,Co3Pt,Co3Pt,212,242.49,92.6,0.30936,211.62,235.22,89.455,0.31475,211.81,91.028,238.86,0.31205,hexagonal,0,12.66334153,H4
mp-4955,AlVCo2,AlVCo2,192.33,261.76,102.8,0.27317,192.33,240.53,93.115,0.29157,192.33,97.957,251.22,0.2823,cubic,0,6.818543377,H1a
mp-865649,Ti2TcRh,Ti2TcRh,204.33,249.45,96.2,0.29653,204.33,237.65,90.974,0.30616,204.33,93.587,243.57,0.30133,cubic,0,8.248625468,H1a
mp-866143,TiBeRh2,TiBeRh2,203.67,244.4,94,0.3,203.67,243.52,93.611,0.30072,203.67,93.806,243.96,0.30036,cubic,0,8.366097827,H1a
mp-1002165,GeC,GeC,166.67,269.69,109.6,0.23031,166.67,263.52,106.56,0.23648,166.67,108.08,266.61,0.23339,cubic,0,6.659834984,H1a
mp-510409,TiSiNi,TiSiNi,176.78,264.75,105.87,0.25039,176.24,256.82,102.15,0.25712,176.51,104.01,260.8,0.25374,orthorhombic,0,5.670689406,H4
mp-5752,Tb(SiIr)2,Tb(SiIr)2,172.44,266.12,107.07,0.24279,171.67,260.63,104.5,0.24697,172.06,105.79,263.38,0.24487,tetragonal,0,11.91249149,H4
mp-1689,HfRe2,HfRe2,262.22,207.25,75.733,0.36827,262.21,201.48,73.429,0.37194,262.22,74.581,204.37,0.3701,hexagonal,0,17.50430824,H4
mp-9988,Nb2CS,Nb2CS,193.89,254.09,99.133,0.28158,192.56,246.68,95.873,0.28649,193.22,97.503,250.39,0.28402,hexagonal,0,6.809161595,H4
mp-3442,CaTiO3,CaTiO3,173.67,265.07,106.4,0.24562,170.05,261.72,105.24,0.24348,171.86,105.82,263.4,0.24456,tetragonal,2.2469,3.92454846,H4
mp-981384,ScOs3,ScOs3,257,209.53,76.8,0.36412,257,206.08,75.413,0.36635,257,76.106,207.81,0.36524,cubic,0,16.49637194,H1a
mp-21023,Ti3SnC2,Ti3SnC2,158.78,271.77,111.87,0.21472,157.88,270.26,111.25,0.21469,158.33,111.56,271.02,0.2147,hexagonal,0,5.906377102,H4
mp-690535,Na(WO3)2,Na(WO3)2,181.78,287.1,116.07,0.23677,177.61,229.1,89.145,0.28501,179.69,102.61,258.6,0.26015,orthorhombic,0,6.763085534,H4
mp-830,GaN,GaN,177,279.11,112.8,0.23719,177,240.6,94.467,0.27345,177,103.63,260.13,0.25505,cubic,1.9046,5.921365293,H5
mp-5323,CeAlO3,CeAlO3,190.67,270.84,107.2,0.26325,190.67,232.01,89.427,0.29719,190.67,98.314,251.68,0.28,cubic,0.0113,6.580870228,H5
mp-571071,HoSi2Rh3,HoSi2Rh3,187.22,256.24,100.73,0.27189,184.07,253.17,99.615,0.27077,185.65,100.17,254.71,0.27133,hexagonal,0,9.063392941,H4
mp-973,U2N3,U2N3,207.11,255.44,98.667,0.29444,196.93,233.28,89.546,0.30257,202.02,94.106,244.37,0.29839,trigonal,0,12.62557574,H2
mp-305,TiFe,TiFe,194,260.37,102,0.27632,194,238.02,91.862,0.29552,194,96.931,249.28,0.28584,cubic,0,6.642034602,H1a
mp-1008530,AlVFeCo,AlVFeCo,227.67,245.1,92.8,0.32057,227.67,209.15,77.643,0.34689,227.67,85.221,227.3,0.3336,cubic,0,6.80110776,H1a
mp-864992,MnNbRu2,MnNbRu2,219.33,243.53,92.6,0.31495,219.33,221.95,83.354,0.33135,219.33,87.977,232.8,0.3231,cubic,0,9.661758933,H1a
mp-4065,Dy(SiIr)2,Dy(SiIr)2,172.56,265.47,106.73,0.24359,172.01,259.43,103.89,0.24862,172.28,105.31,262.45,0.2461,tetragonal,0,12.0399903,H4
mp-10734,Ti4O5,Ti4O5,207.56,261.89,101.53,0.2897,206.36,219.1,82.803,0.32304,206.96,92.168,240.76,0.30611,tetragonal,0,4.885752045,H4
mp-865969,LuReTc2,LuReTc2,224.33,238.62,90.2,0.32272,224.33,219.92,82.269,0.33661,224.33,86.235,229.32,0.32963,cubic,0,14.14865407,H1a
mp-10883,AlCrCo2,AlCrCo2,203,269.98,105.6,0.27834,203,215.54,81.456,0.32304,203,93.528,243.23,0.3003,cubic,0,7.024895043,H1a
mp-5827,CaTiO3,CaTiO3,174.67,262,104.8,0.25,174.67,259.26,103.49,0.25262,174.67,104.14,260.63,0.25131,cubic,1.8909,3.836497972,H5
mp-23,Ni,Ni,198,262.47,102.6,0.27907,198,229.59,87.85,0.30674,198,95.225,246.21,0.29276,cubic,0,9.047689544,H1a
mp-804,GaN,GaN,171.56,265.2,106.73,0.24236,171.56,259.48,103.97,0.24791,171.56,105.35,262.35,0.24513,hexagonal,1.7376,5.923650599,H1a
mp-977434,Nb3Ru,Nb3Ru,201.67,248.11,95.8,0.29495,201.67,238.97,91.737,0.3025,201.67,93.769,243.56,0.29871,cubic,0,9.267233216,H1a
mp-601848,Fe11Co5,Fe11Co5,192,261.69,102.8,0.27283,190.98,238,92.085,0.2923,191.49,97.443,249.93,0.28247,tetragonal,0,8.108531664,H4
mp-1409,TiNi3,TiNi3,192.67,251.38,98,0.28254,192.67,246.87,95.949,0.28645,192.67,96.975,249.13,0.28449,hexagonal,0,7.958129861,H4
mp-30836,TaPd3,TaPd3,214.33,246.49,94.2,0.30833,214.33,223.7,84.347,0.32605,214.33,89.273,235.17,0.31713,tetragonal,0,13.28857444,H4
mp-12798,Ni3Pt,Ni3Pt,206.33,253.82,98,0.29498,206.33,226.69,86.071,0.31689,206.33,92.035,240.37,0.30584,cubic,0,12.69028606,H1a
mp-778,Fe2P,Fe2P,215.56,238.71,90.733,0.31543,215.52,229.91,86.942,0.3222,215.54,88.837,234.32,0.31881,hexagonal,0,7.083597122,H4
mp-4653,Y(SiIr)2,Y(SiIr)2,175.56,262.92,105.13,0.2504,174.92,256.61,102.2,0.2555,175.24,103.66,259.77,0.25294,tetragonal,0,10.54155078,H4
mp-861666,LiRu2W,LiRu2W,227.33,226.27,84.8,0.33412,227.33,226.26,84.799,0.33412,227.33,84.8,226.27,0.33412,cubic,0,11.75840708,H1a
mp-3677,MgSiN2,MgSiN2,173.22,265.64,106.73,0.24441,172.42,255.69,102.05,0.25284,172.82,104.39,260.68,0.2486,orthorhombic,4.031,3.074086294,H2
mp-10003,Nb4CoSi,Nb4CoSi,191.33,249.81,97.4,0.28239,191.3,248.52,96.816,0.28348,191.32,97.108,249.17,0.28294,tetragonal,0,7.81635881,H4
mp-977354,HoTaOs2,HoTaOs2,209,240.23,91.8,0.30843,209,235.33,89.662,0.31233,209,90.731,237.78,0.31038,cubic,0,17.11882318,H1a
mp-1944,CoP3,CoP3,148.67,274.28,115,0.19251,148.67,273.67,114.68,0.19319,148.67,114.84,273.98,0.19285,cubic,0,4.38274675,H1a
mp-865147,Be2CuRu,Be2CuRu,184.33,253.63,99.8,0.27068,184.33,253.04,99.529,0.27121,184.33,99.665,253.34,0.27094,cubic,0,7.453362852,H1a
mp-1761,LuIr2,LuIr2,204.33,245.41,94.4,0.29983,204.33,235.86,90.185,0.30762,204.33,92.292,240.65,0.30371,cubic,0,17.49126482,H1a
mp-865615,GaSiRu2,GaSiRu2,201.67,249.45,96.4,0.29384,201.67,235,89.986,0.30578,201.67,93.193,242.26,0.29978,cubic,0,9.406643834,H1a
mp-10884,AlFeCo2,AlFeCo2,188.33,269.89,107,0.26116,188.33,230.55,88.95,0.29597,188.33,97.975,250.49,0.27833,cubic,0,7.183512826,H1a
mp-21440,NbCrGe,NbCrGe,196.11,253.49,98.667,0.28457,195.53,237.83,91.666,0.29728,195.82,95.166,245.7,0.29088,hexagonal,0,8.084538901,H4
mp-5373,Y2Ti2O7,Y2Ti2O7,186,252.25,99,0.27397,186,251.1,98.471,0.275,186,98.735,251.67,0.27449,cubic,2.817,4.843254268,H2
mp-862561,ScSbRu2,ScSbRu2,178,256.92,102,0.25943,178,256.17,101.64,0.26014,178,101.82,256.54,0.25979,cubic,0,9.364532528,H1a
mp-16305,ScPRu,ScPRu,174.89,258.99,103.33,0.25318,174.69,257.95,102.86,0.2539,174.79,103.1,258.47,0.25354,hexagonal,0,6.48401658,H4
mp-2838,UNi5,UNi5,207,239.93,91.8,0.30682,207,236.61,90.344,0.30949,207,91.072,238.27,0.30815,cubic,0,11.41668378,H1a
mp-601842,Fe9Co7,Fe9Co7,190,262.14,103.2,0.27005,190,235.87,91.203,0.2931,190,97.201,249.12,0.28147,cubic,0,8.206826997,H1a
mp-1220,Be5Au,Be5Au,138,279.1,120,0.16292,138,278.03,119.4,0.16422,138,119.7,278.56,0.16357,cubic,0,7.014958352,H1a
mp-977443,ZrGeRu2,ZrGeRu2,213,235.28,89.4,0.3159,213,233.24,88.518,0.31749,213,88.959,234.26,0.3167,cubic,0.1517,9.713002976,H5
mp-9957,V2GeC,V2GeC,179.44,263.31,104.87,0.25544,179.44,247.61,97.484,0.27002,179.44,101.18,255.51,0.26269,hexagonal,0,6.470529511,H4
mp-13472,HfSiRh,HfSiRh,189.78,252.72,98.867,0.27806,189.5,245.59,95.635,0.284,189.64,97.251,249.16,0.28102,orthorhombic,0,10.76733239,H4
mp-3136,NaNbO3,NaNbO3,181.33,272,108.8,0.25,181.33,236.11,92.016,0.28299,181.33,100.41,254.29,0.26628,cubic,1.5859,4.222756529,H5
mp-2318,Nb2C,Nb2C,219.11,273.1,105.67,0.29227,219.1,184.72,67.937,0.35948,219.1,86.802,230.03,0.32502,trigonal,0,7.645160328,H2
mp-997590,La8MgAl7O24,La8MgAl7O24,184.33,257.49,101.6,0.26719,184.33,246.95,96.712,0.27672,184.33,99.156,252.24,0.27194,cubic,0,6.29027731,H1a
mp-867319,Al2CoIr,Al2CoIr,197.67,254.07,98.8,0.28578,197.67,233.38,89.541,0.30322,197.67,94.171,243.8,0.29444,cubic,0,9.846395987,H1a
mp-753495,Sb3O7F,Sb3O7F,166.56,294.43,122.13,0.20537,165.48,230.29,90.803,0.26806,166.02,106.47,263.15,0.23582,orthorhombic,0,6.022280679,H4
mp-865001,HfScOs2,HfScOs2,201,241.72,93,0.29957,201,241.58,92.936,0.29969,201,92.968,241.65,0.29963,cubic,0,14.79074777,H1a
mp-11358,TaCo3,TaCo3,146.89,288.72,123.13,0.1724,146.89,258.15,106.93,0.20708,146.89,115.03,273.66,0.18949,cubic,0,12.33766354,H1a
mp-1012640,CrFeCoNi,CrFeCoNi,174,262.25,105,0.2488,172.78,255.24,101.79,0.25378,173.39,103.39,258.75,0.25128,monoclinic,0,8.471721925,H4
mp-561511,FeAsS,FeAsS,143.22,281.65,120.13,0.17224,142.05,269.7,113.94,0.18355,142.64,117.04,275.7,0.17785,monoclinic,0.7361,6.221556049,H4
mp-2417,DyIr3,DyIr3,208,263.01,102,0.28926,208,210.03,78.857,0.33171,208,90.429,236.95,0.31014,cubic,0,18.37091984,H1a
mp-818,SiRh,SiRh,201.11,253.51,98.267,0.28991,189.37,236.63,91.594,0.29174,195.24,94.93,245.07,0.2908,orthorhombic,0,7.763961159,H4
mp-867840,BeFeRh2,BeFeRh2,210.67,237.26,90.4,0.31229,210.67,232.7,88.42,0.3159,210.67,89.41,234.99,0.31409,cubic,0,9.086506268,H1a
mp-569875,ScBRh3,ScBRh3,194,256.45,100.2,0.27968,194,234.85,90.448,0.29824,194,95.324,245.73,0.2889,cubic,0,8.589000803,H1a
mp-975216,RbReO3,RbReO3,175,257.48,102.6,0.25478,175,257.4,102.56,0.25485,175,102.58,257.44,0.25482,cubic,0,8.394151231,H1a
mp-673635,Fe3N,Fe3N,199.67,242.85,93.6,0.29729,199.61,240.96,92.764,0.2988,199.64,93.182,241.91,0.29804,trigonal,0,7.452146892,H2
mp-1395,VRu,VRu,252.44,214.28,78.867,0.35853,252.44,198.75,72.603,0.36878,252.44,75.735,206.55,0.36363,cubic,0,9.212888863,H1a
mp-5135,Dy(CoB)2,Dy(CoB)2,171.22,271.25,109.73,0.23596,158.65,254.94,103.45,0.23218,164.94,106.59,263.1,0.23414,tetragonal,0,8.476523963,H4
mp-22144,Ta2InC,Ta2InC,177.44,257.36,102.27,0.25827,177.33,254.07,100.72,0.26121,177.39,101.5,255.71,0.25974,hexagonal,0,12.85304201,H4
mp-865020,HfMgIr2,HfMgIr2,184.67,252.84,99.4,0.27181,184.67,249.68,97.939,0.27466,184.67,98.669,251.26,0.27323,cubic,0,14.93960754,H1a
mp-866086,MgSiIr2,MgSiIr2,214,232.64,88.2,0.31882,214,231.96,87.907,0.31935,214,88.053,232.3,0.31908,cubic,0,13.18282213,H1a
mp-568328,FeP4,FeP4,140.22,287.91,124.33,0.1578,138.46,265.09,112.24,0.18091,139.34,118.29,276.59,0.16917,orthorhombic,0.903,4.205289443,H2
mp-21306,TiCoSi,TiCoSi,181.44,257,101.67,0.26393,180.3,249.6,98.325,0.26927,180.87,99.996,253.31,0.26659,orthorhombic,0,5.717659329,H4
mp-2577,Mn3Rh,Mn3Rh,114,308.43,147,0.04908,114,264.68,118.9,0.11303,114,132.95,287.2,0.080111,cubic,0,9.484167511,H1a
mp-865179,Hf2FeOs,Hf2FeOs,195.67,247.08,95.8,0.28954,195.67,240.88,93.019,0.29482,195.67,94.409,243.99,0.29218,cubic,0,15.14416075,H1a
mp-1025550,Ti2GaN,Ti2GaN,158.33,267.16,109.6,0.21878,158.32,265.76,108.9,0.22023,158.33,109.25,266.46,0.21951,hexagonal,0,5.682010932,H4
mp-7226,V3Ni,V3Ni,201,247.11,95.4,0.2951,201,233.77,89.489,0.30616,201,92.444,240.47,0.30061,cubic,0,6.898754916,H1a
mp-510380,Mn3CuN,Mn3CuN,160.44,22.639,7.6667,0.47648,160.45,436.98,208.87,0.046075,160.44,108.27,265.16,0.22456,cubic,0,7.169985079,H1a
mp-865023,HfTc2Sb,HfTc2Sb,203.67,240.33,92.2,0.30333,203.67,236.59,90.55,0.30639,203.67,91.375,238.46,0.30486,cubic,0,12.05383838,H1a
mp-20856,Eu(FeP3)4,Eu(FeP3)4,150.67,270.43,112.6,0.20085,150.67,270.1,112.43,0.20121,150.67,112.52,270.27,0.20103,cubic,0,5.207254266,H1a
mp-775910,ZrO2,ZrO2,187.56,254.15,99.733,0.27415,187.55,243.03,94.636,0.28403,187.55,97.185,248.61,0.27907,tetragonal,3.3126,6.010890203,H4
mp-2260,FePt,FePt,201.44,253.12,98.067,0.29058,201.25,226.22,86.167,0.31266,201.35,92.117,239.78,0.30152,tetragonal,0,14.81462417,H4
mp-458,Ti2O3,Ti2O3,215.78,231.17,87.467,0.32145,215.46,229.63,86.825,0.32237,215.62,87.146,230.4,0.32191,trigonal,0,4.52357834,H2
mp-865234,TaZnRu2,TaZnRu2,225.67,233.63,88,0.32745,225.67,213.35,79.465,0.34243,225.67,83.732,223.55,0.3349,cubic,0,12.49589499,H1a
mp-998908,TiN,TiN,222,229.44,86.4,0.32775,222,222.42,83.427,0.33302,222,84.913,225.93,0.33038,cubic,0,4.215554737,H1a
mp-971779,ZnRh3,ZnRh3,207.78,247.01,94.867,0.30187,207.74,223.43,84.586,0.32074,207.76,89.727,235.31,0.31123,tetragonal,0,11.03001689,H4
mp-12097,Sm(SiIr)2,Sm(SiIr)2,168.56,263.98,106.53,0.23897,166.72,256.52,103.14,0.24356,167.64,104.84,260.26,0.24125,tetragonal,0,11.51737399,H4
mp-862725,ScTc2W,ScTc2W,223.33,230.06,86.6,0.32831,223.33,219.76,82.244,0.336,223.33,84.422,224.93,0.33215,cubic,0,11.0706716,H1a
mp-30849,TaPt2,TaPt2,243.33,249.36,93.8,0.32921,242.07,172.07,62.275,0.38153,242.7,78.038,211.45,0.35479,orthorhombic,0,19.20366661,H4
mp-2998,BaTiO3,BaTiO3,163.33,264.68,107.6,0.22992,163.33,260.07,105.33,0.23462,163.33,106.46,262.38,0.23226,cubic,1.7252,5.89174939,H5
mp-11513,NbNi3,NbNi3,209.11,243.59,93.267,0.30586,209.11,223.75,84.646,0.32167,209.11,88.956,233.73,0.31371,tetragonal,0,8.984259395,H4
mp-10044,BAs,BAs,127.67,284.09,125.8,0.12913,127.67,276.79,121.54,0.13866,127.67,123.67,280.45,0.13387,cubic,1.2522,5.087631341,H5
mp-30825,PaRh3,PaRh3,211.33,232.75,88.4,0.31645,211.33,231.48,87.85,0.31745,211.33,88.125,232.11,0.31695,cubic,0,13.346788,H1a
mp-10895,Mn2AlV,Mn2AlV,184.33,257.49,101.6,0.26719,184.33,241.12,94.043,0.28199,184.33,97.821,249.36,0.27454,cubic,0,6.337605186,H1a
mp-865807,Ti2MoIr,Ti2MoIr,210,234.87,89.4,0.31359,210,230.92,87.685,0.31673,210,88.542,232.9,0.31516,cubic,0,10.42970808,H1a
mp-5798,Al6C3N2,Al6C3N2,164.89,265.8,107.93,0.23133,164.88,256.03,103.14,0.2412,164.89,105.54,260.94,0.23625,trigonal,0.2119,2.988589974,H2
mp-862911,Ti2CoTc,Ti2CoTc,194.33,249.05,96.8,0.28641,194.33,236.79,91.289,0.29692,194.33,94.044,242.94,0.29164,cubic,0,7.508747588,H1a
mp-675,ZrW2,ZrW2,215.33,230.49,87.2,0.3216,215.33,227.93,86.104,0.32358,215.33,86.652,229.21,0.32259,cubic,0,13.52058818,H1a
mp-866031,Al2FeIr,Al2FeIr,181.67,263.69,104.8,0.25808,181.67,237.52,92.632,0.28209,181.67,98.716,250.73,0.26997,cubic,0,9.665035142,H1a
mp-1019262,Ta2N3O,Ta2N3O,239,263.74,100.2,0.31608,208.19,182.62,67.445,0.35381,223.6,83.823,223.53,0.33338,hexagonal,0,9.742208918,H4
mp-1008224,CrCo2Si,CrCo2Si,203,263.42,102.6,0.28373,203,209.91,79.052,0.32766,203,90.826,237.11,0.30532,cubic,0,7.346076125,H1a
mp-4433,Ce(SiIr)2,Ce(SiIr)2,165.67,265.76,107.8,0.23264,165.19,254.29,102.25,0.24344,165.43,105.03,260.05,0.23801,tetragonal,0,11.28705497,H4
mp-864798,HfZnIr2,HfZnIr2,213,240.81,91.8,0.31158,213,219.53,82.639,0.32823,213,87.22,230.23,0.31985,cubic,0,16.54244373,H1a
mp-2030,RuS2,RuS2,131.33,286.75,126.2,0.1361,131.33,268.67,115.9,0.15904,131.33,121.05,277.8,0.14746,cubic,0.6822,6.065015751,H5
mp-6933,MnN,MnN,130.67,278.43,121.6,0.14486,130.67,277.52,121.08,0.14602,130.67,121.34,277.98,0.14544,cubic,0,6.465946945,H1a
mp-504741,Hf(FeSi)2,Hf(FeSi)2,192.67,250.94,97.8,0.28292,192.64,234.73,90.496,0.29692,192.65,94.148,242.88,0.28988,orthorhombic,0,8.770894595,H4
mp-22637,HfNbP,HfNbP,178.78,259.36,103.07,0.25821,178.64,243.67,95.732,0.27266,178.71,99.399,251.56,0.26539,orthorhombic,0,9.894290895,H4
mp-1128,SiIr,SiIr,226.78,254.84,97.067,0.31271,202.75,201.9,75.671,0.33404,214.77,86.369,228.48,0.32269,orthorhombic,0,12.71120168,H4
mp-601820,Fe3Co,Fe3Co,186.89,256.17,100.73,0.27155,186.88,236.51,91.736,0.28907,186.88,96.234,246.41,0.28025,tetragonal,0,8.136129184,H4
mp-753657,TiOF,TiOF,188.11,278.83,111.27,0.25296,188.11,210.71,80.219,0.31331,188.11,95.743,245.57,0.28243,tetragonal,0,4.171728179,H4
mp-5757,CeB2Rh3,CeB2Rh3,179.11,262.39,104.47,0.25584,178.93,239.75,93.897,0.27668,179.02,99.182,251.16,0.26617,hexagonal,0,9.605648801,H4
mp-30621,DySi2Rh3,DySi2Rh3,177.56,254.56,100.93,0.26105,174.42,251.38,99.772,0.25979,175.99,100.35,252.97,0.26043,hexagonal,0,8.959665657,H4
mp-3050,Y3Al5O12,Y3Al5O12,170.67,256,102.4,0.25,170.67,255.92,102.36,0.25008,170.67,102.38,255.96,0.25004,cubic,4.4951,4.420389765,H2