Material_ID,Formula,pretty_formula,KV ,EV ,GV ,PV ,KR ,ER ,GR ,PR ,bulk,shear,young,poisson,csyst,gap,density,y_cla
mp-1025396,NbTl3Se4,NbTl3Se4,37.333,90.039,41,0.098039,37.333,88.05,39.773,0.10692,37.333,40.386,89.049,0.10246,cubic,2.3069,6.442221863,H2
mp-31160,CaZnSn,CaZnSn,47.333,86.539,36.2,0.19529,45.119,83.294,34.929,0.19232,46.226,35.565,84.917,0.19383,hexagonal,0,5.131943953,H4
mp-23234,TmBi,TmBi,55,87.44,35.4,0.23503,55,72.03,28.099,0.28173,55,31.749,79.878,0.25795,cubic,0,10.19149906,H1a
mp-862672,LiY2Rh,LiY2Rh,63,76.327,29.4,0.29808,63,73.246,28.037,0.30623,63,28.719,74.791,0.30214,cubic,0,5.538817419,H1a
mp-558078,Rb2NaFeF6,Rb2NaFeF6,57.333,78.367,30.8,0.27219,57.333,78.363,30.798,0.2722,57.333,30.799,78.365,0.2722,cubic,4.1195,3.778508562,H2
mp-1008524,BeSe,BeSe,92.778,77.476,28.467,0.36082,92.683,29.816,10.307,0.44638,92.731,19.387,54.371,0.40228,hexagonal,0.6331,4.895392752,H1a
mp-862884,CaPmPd2,CaPmPd2,69.333,70.752,26.6,0.32992,69.333,70.421,26.46,0.33072,69.333,26.53,70.587,0.33032,cubic,0,7.271729834,H1a
mp-1331,YCd2,YCd2,57.111,81.459,32.267,0.26228,54.062,77.334,30.65,0.26159,55.587,31.458,79.397,0.26194,hexagonal,0,6.972864537,H4
mp-13119,CdO,CdO,93.889,54.275,19.333,0.40365,92.124,53.995,19.252,0.40232,93.006,19.293,54.135,0.40299,hexagonal,0,6.228068587,H4
mp-1013588,Sr3SbP,Sr3SbP,98,55.652,19.8,0.40535,98,45.386,15.949,0.42281,98,17.875,50.551,0.41403,cubic,0.8353,3.649072067,H5
mp-20369,CeIn3,CeIn3,48.667,83.914,34.6,0.21262,48.667,82.877,34.073,0.21617,48.667,34.336,83.396,0.2144,cubic,0,7.71261092,H1a
mp-675349,DyCuSe2,DyCuSe2,63.333,78.621,30.4,0.2931,63.324,70.277,26.72,0.31503,63.329,28.56,74.484,0.30398,trigonal,1.1062,6.833100239,H2
mp-1019362,ThBiTe,ThBiTe,65.667,79.907,30.8,0.29719,65.532,65.869,24.717,0.33248,65.599,27.758,72.981,0.31458,tetragonal,0,9.952682056,H4
mp-11947,LiAlAg2,LiAlAg2,68.333,89.688,35,0.28125,68.333,51.263,18.642,0.37497,68.333,26.821,71.153,0.32646,cubic,0,6.463470579,H1a
mp-9873,EuZnGe,EuZnGe,47.556,93.234,39.733,0.17325,39.701,78.693,33.64,0.16964,43.628,36.687,85.964,0.1716,hexagonal,0,6.900815621,H4
mp-11879,BaNiSn3,BaNiSn3,55.889,79.199,31.333,0.26382,55.87,78.852,31.173,0.26477,55.879,31.253,79.026,0.2643,tetragonal,0,6.986003322,H4
mp-644225,Sr2MgH6,Sr2MgH6,45.111,86.55,36.667,0.18023,45.092,83.677,35.137,0.19072,45.102,35.902,85.12,0.18545,trigonal,2.7583,3.106366635,H2
mp-977376,TbCdAu2,TbCdAu2,89,61.488,22.2,0.38485,89,51.932,18.511,0.40275,89,20.355,56.74,0.39374,cubic,0,12.82820886,H1a
mp-571335,ThBi2,ThBi2,67.778,79.49,30.467,0.30453,65.689,64.471,24.121,0.33643,66.734,27.294,72.057,0.32004,tetragonal,0,11.06276288,H4
mp-979984,YbP3,YbP3,74.333,66.954,24.8,0.34988,74.333,66.861,24.762,0.35009,74.333,24.781,66.908,0.34998,cubic,0,6.472347005,H1a
mp-862737,LiHgPd2,LiHgPd2,97.333,70.102,25.4,0.37996,97.333,30.362,10.484,0.44801,97.333,17.942,50.71,0.41317,cubic,0,10.61494823,H1a
mp-22866,HoBi,HoBi,53.667,86.654,35.2,0.23089,53.667,73.608,28.947,0.2714,53.667,32.074,80.237,0.25082,cubic,0,9.89181454,H1a
mp-862838,PmAlCu2,PmAlCu2,99.667,55.183,19.6,0.40772,99.667,42.736,14.958,0.42853,99.667,17.279,49.005,0.41805,cubic,0,7.042756019,H1a
mp-1785,PrSb,PrSb,55.333,87.94,35.6,0.23512,55.333,70.087,27.189,0.28889,55.333,31.394,79.204,0.26143,cubic,0,6.507072294,H1a
mp-11243,ErAu,ErAu,94.778,73.14,26.667,0.37138,94.406,31.027,10.734,0.44522,94.592,18.7,52.633,0.40726,orthorhombic,0,12.86383821,H4
mp-862897,PmCdPt2,PmCdPt2,107.67,50.611,17.8,0.42165,107.67,35.613,12.324,0.44487,107.67,15.062,43.173,0.43317,cubic,0,13.0243927,H1a
mp-997009,BaAuO2,BaAuO2,73,74.006,27.8,0.33104,71.194,62.556,23.108,0.35356,72.097,25.454,68.322,0.34206,monoclinic,1.223,8.029159432,H4
mp-10632,TlS,TlS,54.667,94.13,38.8,0.21302,54.667,63.849,24.457,0.30534,54.667,31.628,79.544,0.25749,cubic,0,8.446144276,H1a
mp-9321,Ba2HfS4,Ba2HfS4,57.333,80.941,32,0.26471,57.3,74.868,29.194,0.28223,57.317,30.597,77.925,0.27341,tetragonal,0.9291,4.933313591,H1a
mp-675755,TiCu3O4,TiCu3O4,104.67,88.109,32.4,0.3597,48.255,42.433,15.676,0.35344,76.461,24.038,65.274,0.35772,monoclinic,0,4.824470297,H4
mp-3822,SrCO3,SrCO3,61.778,78.496,30.467,0.28823,57.761,74.174,28.84,0.28598,59.77,29.653,76.336,0.28714,orthorhombic,4.4424,3.635955509,H2
mp-27821,Ag3P11,Ag3P11,53.778,83.151,33.467,0.2423,51.971,77.915,31.162,0.25013,52.874,32.315,80.537,0.24614,monoclinic,1.0961,3.756361828,H4
mp-15896,Cu2SiSe3,Cu2SiSe3,63.111,78.285,30.267,0.29326,62.991,69.761,26.517,0.31542,63.051,28.392,74.059,0.30424,monoclinic,0.242,5.104662718,H4
mp-10764,HgS,HgS,47.333,7.6598,2.6,0.47303,47.333,136.1,66.667,0.020767,47.333,34.633,83.528,0.20589,cubic,0,8.887133194,H1a
mp-9839,K2LiAlF6,K2LiAlF6,51.333,90.276,37.4,0.2069,51.333,71.792,28.333,0.26691,51.333,32.867,81.258,0.23618,cubic,7.4651,2.956903517,H2
mp-552265,Bi2SeO2,Bi2SeO2,94.222,71.262,25.933,0.37395,82.933,41.313,14.578,0.41697,88.577,20.256,56.463,0.39376,tetragonal,0,9.527761278,H4
mp-865919,MgAlAg2,MgAlAg2,78.333,92.749,35.6,0.30266,78.333,31.589,11.024,0.43279,78.333,23.312,63.624,0.36463,cubic,0,6.367013416,H1a
mp-978808,Sm2ZnGa,Sm2ZnGa,55.333,81.746,32.6,0.25378,55.333,75.703,29.758,0.27198,55.333,31.179,78.746,0.26281,cubic,0,7.409624411,H1a
mp-22367,PdPbO2,PdPbO2,88.222,77.758,28.733,0.3531,79.26,41.263,14.599,0.41323,83.741,21.666,59.838,0.38091,orthorhombic,0,9.052020003,H4
mp-863697,LiPm2Si,LiPm2Si,56,82.746,33,0.25373,56,73.618,28.737,0.2809,56,30.868,78.231,0.26717,cubic,0,5.723124055,H1a
mp-19260,Li2WO4,Li2WO4,69.444,93.103,36.467,0.27655,68.419,44.638,16.042,0.39126,68.932,26.254,69.89,0.33102,monoclinic,3.9135,5.625991833,H2
mp-8016,AlCuSe2,AlCuSe2,62.889,78.396,30.333,0.29224,62.835,69.291,26.322,0.31621,62.862,28.328,73.885,0.30411,tetragonal,0.8932,4.651354686,H1a
mp-1022732,FeBiAsO,FeBiAsO,71.778,68.799,25.667,0.34025,71.617,67.251,25.028,0.34349,71.697,25.347,68.026,0.34187,tetragonal,0,7.767743065,H4
mp-862821,PaSnAu2,PaSnAu2,106,54.32,19.2,0.41459,106,32.88,11.351,0.4483,106,15.276,43.727,0.43125,cubic,0,13.86003621,H1a
mp-861733,LiTePd2,LiTePd2,96,72.55,26.4,0.37405,96,28.039,9.6597,0.45132,96,18.03,50.903,0.41163,cubic,0,8.574771713,H1a
mp-973266,Lu3Al,Lu3Al,55.222,79.896,31.733,0.25887,54.284,77.855,30.871,0.26096,54.753,31.302,78.876,0.2599,hexagonal,0,9.079986255,H4
mp-10519,Cu2SnS3,Cu2SnS3,65.889,77.083,29.533,0.30502,65.874,66.434,24.939,0.33192,65.881,27.236,71.813,0.31833,monoclinic,0.0407,4.624008619,H4
mp-29647,SmSb2,SmSb2,60,81.076,31.8,0.27479,57.469,71.697,27.745,0.29207,58.735,29.773,76.407,0.28318,orthorhombic,0,7.503795075,H4
mp-567332,Ce,Ce,40.556,93.887,42.133,0.11416,40.547,78.76,33.479,0.17626,40.551,37.806,86.528,0.14436,monoclinic,0,8.91786665,H4
mp-978507,SmTh3,SmTh3,54,85.939,34.8,0.23476,54,72.396,28.356,0.27655,54,31.578,79.28,0.25531,cubic,0,10.88851618,H1a
mp-556788,SiO2,SiO2,52.111,104.58,44.867,0.16551,32.578,66.753,28.81,0.1585,42.345,36.838,85.671,0.1628,triclinic,4.8016,2.696521761,H5
mp-5756,Cu3PSe4,Cu3PSe4,64.222,74.558,28.533,0.30651,63.99,71.236,27.097,0.31446,64.106,27.815,72.902,0.31047,orthorhombic,0.0475,5.319838769,H2
mp-979431,YLuZn2,YLuZn2,66.667,84.536,32.8,0.28866,66.667,57.09,21.031,0.35727,66.667,26.916,71.169,0.32208,cubic,0,7.361537884,H1a
mp-13660,Ca4Sb2O,Ca4Sb2O,45,84.513,35.6,0.18699,44.99,84.04,35.35,0.18867,44.995,35.475,84.277,0.18783,tetragonal,0.9289,3.834303601,H1a
mp-23245,ErBi,ErBi,52.667,86.36,35.2,0.22671,52.667,73.395,28.947,0.26774,52.667,32.074,79.984,0.24688,cubic,0,10.03921223,H1a
mp-2738,DyNi,DyNi,84,70.212,25.8,0.36069,79.929,51.009,18.301,0.39364,81.964,22.05,60.707,0.37656,orthorhombic,0,9.239549065,H4
mp-989535,Cs2AlInH6,Cs2AlInH6,111.67,53.941,19,0.41949,111.67,24.257,8.2857,0.4638,111.67,13.643,39.327,0.4413,cubic,0.888,3.971845269,H5
mp-864794,ZnAg3,ZnAg3,90,73.636,27,0.36364,90,35.292,12.3,0.43464,90,19.65,54.951,0.39824,cubic,0,9.369247345,H1a
mp-8481,LiPrGe,LiPrGe,41.667,88.478,38.6,0.14609,40.463,83.724,36.24,0.15514,41.065,37.42,86.105,0.15053,hexagonal,0,5.302627787,H4
mp-30610,Er2Pt,Er2Pt,73.444,69.927,26.067,0.34131,72.348,63.783,23.57,0.35306,72.896,24.818,66.866,0.34712,orthorhombic,0,11.98849154,H4
mp-13311,SrAlGe,SrAlGe,49.444,85.085,35.067,0.2132,43.926,81.318,34.126,0.19146,46.685,34.596,83.229,0.20287,hexagonal,0,4.020470825,H4
mp-570008,Sr3BiN,Sr3BiN,43.333,84.946,36.2,0.17329,43.333,84.943,36.198,0.1733,43.333,36.199,84.944,0.17329,cubic,0.2569,5.539938282,H5
mp-10729,Pd2O,Pd2O,154.67,10.126,3.4,0.48909,154.67,4.5503,1.5217,0.4951,154.67,2.4609,7.3437,0.49209,cubic,0,8.109031172,H1a
mp-21328,HfSn,HfSn,102,68.309,24.6,0.38838,102,22.958,7.8488,0.46249,102,16.224,46.222,0.42447,cubic,0,10.84084368,H1a
mp-3635,LiBO2,LiBO2,80.444,119.41,47.667,0.2526,39.169,29.657,10.794,0.37381,59.807,29.23,75.406,0.28986,monoclinic,5.232,2.079064457,H2
mp-989585,Cs2KPbF6,Cs2KPbF6,114.67,37.58,13,0.44538,114.67,36.385,12.571,0.44712,114.67,12.786,36.983,0.44625,cubic,0.0031,4.518670705,H5
mp-2661,SrSi,SrSi,49.333,83.341,34.2,0.21844,48.482,80.518,32.913,0.2232,48.907,33.556,81.931,0.2208,orthorhombic,0,3.451941633,H4