Material_ID,Formula,pretty_formula,KV ,EV ,GV ,PV ,KR ,ER ,GR ,PR ,bulk,shear,young,poisson,csyst,gap,density,y_cla
mp-862831,PaTiTc2,PaTiTc2,161,142.79,52.8,0.35218,161,121.68,44.277,0.37404,161,48.538,132.32,0.36303,cubic,0,11.15140466,H1a
mp-865925,LiZrIr2,LiZrIr2,158.33,141.58,52.4,0.35097,158.33,126.6,46.316,0.36673,158.33,49.358,134.14,0.3588,cubic,0,12.79022712,H1a
mp-865899,Ti3Os,Ti3Os,156.67,136.07,50.2,0.35525,156.67,134.29,49.477,0.35713,156.67,49.838,135.18,0.35619,cubic,0,8.810681745,H1a
mp-864835,Hf2CoIr,Hf2CoIr,190,128.21,46.2,0.38754,190,94.81,33.458,0.41683,190,39.829,111.68,0.40203,cubic,0,15.20009131,H1a
mp-1025173,Ti(MoS2)2,Ti(MoS2)2,110.56,170.39,68.533,0.24313,109.9,159.88,63.569,0.25754,110.23,66.051,165.16,0.25027,monoclinic,0,5.228463325,H4
mp-865120,NaPaO3,NaPaO3,133,165.91,64.2,0.2921,133,135.38,50.88,0.33036,133,57.54,150.86,0.31095,cubic,3.2191,6.078220977,H2
mp-11733,Lu3InN,Lu3InN,97.333,172.5,71.6,0.20462,97.333,172.4,71.547,0.2048,97.333,71.573,172.45,0.20471,cubic,0,10.56086345,H1a
mp-15922,Gd2ReO5,Gd2ReO5,132.11,154.22,59.067,0.30545,127.92,151.33,58.076,0.30284,130.01,58.571,152.77,0.30416,tetragonal,0,8.940257507,H4
mp-1018641,Tm3AlN,Tm3AlN,96.333,173.3,72.2,0.20017,96.333,172.62,71.844,0.20135,96.333,72.022,172.96,0.20076,cubic,0,8.844354346,H1a
mp-28665,NdSi2Ru,NdSi2Ru,119.78,168.7,66.667,0.26526,118.11,150.6,58.484,0.2875,118.95,62.575,159.72,0.2762,monoclinic,0,6.703122751,H4
mp-30847,TiSnPt,TiSnPt,136.33,150.55,57.2,0.31596,136.33,146.58,55.488,0.32081,136.33,56.344,148.57,0.31838,cubic,0.831,9.925802909,H5
mp-20757,MnAlGe,MnAlGe,114.22,167.99,66.933,0.25488,113.99,157.3,61.929,0.27001,114.11,64.431,162.67,0.26239,tetragonal,0,5.706357766,H4
mp-20619,SbRh,SbRh,136.11,156.18,59.667,0.30876,133.21,142.97,54.11,0.32112,134.66,56.888,149.6,0.31485,orthorhombic,0,9.793324256,H4
mp-542640,GePt,GePt,143.11,148.3,55.867,0.32729,142.87,139.66,52.228,0.33708,142.99,54.047,144,0.33216,orthorhombic,0,13.12468518,H4
mp-1018743,LaNi3Rh2,LaNi3Rh2,147.33,146.74,55,0.334,141.1,139.45,52.219,0.33528,144.22,53.61,143.1,0.33463,hexagonal,0,9.212886429,H4
mp-4342,KNbO3,KNbO3,129.11,191.58,76.467,0.2527,80.676,143.71,59.722,0.20312,104.89,68.094,167.94,0.23315,tetragonal,1.5577,4.365394324,H1a
mp-3274,NiGePd,NiGePd,158.44,144.67,53.667,0.34783,156.46,123.06,44.947,0.36891,157.45,49.307,133.94,0.35822,tetragonal,0,9.471640903,H4
mp-9164,ThSiAu,ThSiAu,123.78,160.85,62.667,0.28341,117.36,155.76,60.901,0.2788,120.57,61.784,158.31,0.28116,hexagonal,0,11.28772548,H4
mp-4181,Pr2CuO4,Pr2CuO4,131.11,165.72,64.267,0.28934,127.24,139.62,53,0.31712,129.17,58.634,152.78,0.30287,tetragonal,0,6.821515862,H4
mp-753708,TiOF,TiOF,136.11,155.72,59.467,0.30932,133.68,142.32,53.805,0.32256,134.89,56.636,149.05,0.31584,monoclinic,0,3.913721192,H4
mp-4158,Nd2CuO4,Nd2CuO4,132.11,167.23,64.867,0.28903,128.6,136.3,51.497,0.32336,130.36,58.182,151.94,0.30574,tetragonal,0,7.086167304,H4
mp-1652,ZnPd,ZnPd,139.78,157.16,59.867,0.3126,139.02,134.46,50.217,0.3388,139.4,55.042,145.92,0.32554,tetragonal,0,9.828834906,H4
mp-1695,Y2C3,Y2C3,119.33,166.32,65.6,0.26771,119.33,151.23,58.672,0.28878,119.33,62.136,158.84,0.27816,cubic,0,5.032814279,H1a
mp-421,DyNi2,DyNi2,184,118.64,42.6,0.39253,184,111.48,39.844,0.39902,184,41.222,115.07,0.39577,cubic,0,10.08509713,H1a
mp-978596,Sm2Au2O5,Sm2Au2O5,136.11,20.839,7.0667,0.47448,128.48,252.59,107.73,0.17234,132.3,57.398,150.44,0.31048,tetragonal,0,10.15066038,H4
mp-19340,LiVO2,LiVO2,123.11,172,67.867,0.26715,117.33,144.09,55.621,0.29531,120.22,61.744,158.16,0.28074,trigonal,0,3.945466844,H2
mp-20059,ZrMnGe,ZrMnGe,100.44,179.52,74.667,0.20213,97.176,161.96,66.258,0.22222,98.81,70.462,170.79,0.21192,orthorhombic,0,7.234835394,H4
mp-18918,ZnWO4,ZnWO4,144.89,150.55,56.733,0.32682,139.17,137.3,51.403,0.33556,142.03,54.068,143.94,0.33109,monoclinic,3.2219,7.44363542,H2
mp-21175,TaGaNi2,TaGaNi2,187.33,155.75,57.2,0.36143,187.33,66.724,23.158,0.44064,187.33,40.179,112.49,0.39992,cubic,0,11.45958637,H1a
mp-7002,NaTiO2,NaTiO2,99.556,176.24,73.133,0.20495,97.319,165.63,68.084,0.21635,98.437,70.609,170.95,0.21056,trigonal,0,3.892519808,H2
mp-8462,Hf3Al2,Hf3Al2,114.89,167.3,66.533,0.2573,114.87,155.29,60.915,0.27469,114.88,63.724,161.34,0.26593,tetragonal,0,9.889703579,H4
mp-16523,Al3Pd5,Al3Pd5,155.67,141.34,52.4,0.34867,155.62,127.87,46.908,0.36304,155.64,49.654,134.64,0.35582,orthorhombic,0,8.6142271,H4
mp-11385,YFe5,YFe5,107.78,169.1,68.267,0.23851,101.78,165.49,67.329,0.22899,104.78,67.798,167.31,0.23387,hexagonal,0,7.107153348,H4
mp-30822,PuOs2,PuOs2,242,73.064,25.2,0.44968,242,72.503,25,0.45007,242,25.1,72.784,0.44987,cubic,0,19.95669958,H1a
mp-30603,ZrCu5,ZrCu5,137.33,149.29,56.6,0.31882,137.33,144.59,54.58,0.32453,137.33,55.59,146.94,0.32167,cubic,0,8.493079275,H1a
mp-19421,FeWO4,FeWO4,141.78,151.88,57.467,0.32146,140.51,136.41,50.967,0.3382,141.14,54.217,144.19,0.32974,monoclinic,2.6113,7.090244884,H2
mp-12006,CeCdNi4,CeCdNi4,142,148.01,55.8,0.32628,142,139.15,52.052,0.33668,142,53.926,143.6,0.33146,cubic,0,9.15949188,H1a
mp-13435,CeMgNi4,CeMgNi4,142,148.01,55.8,0.32628,142,139.15,52.052,0.33668,142,53.926,143.6,0.33146,cubic,0,7.68581124,H1a
mp-565203,Mn2O3,Mn2O3,150,139.84,52,0.34462,149.99,136.28,50.526,0.34858,150,51.263,138.06,0.3466,orthorhombic,0.0038,4.721179453,H2
mp-866187,Ti2ZnTc,Ti2ZnTc,157,140.98,52.2,0.35034,157,125.46,45.894,0.36682,157,49.047,133.26,0.35853,cubic,0,7.030689543,H1a
mp-773864,TiSnO4,TiSnO4,165.56,135.62,49.733,0.36347,164.07,119.98,43.529,0.37812,164.81,46.631,127.84,0.37073,tetragonal,2.2698,4.879470871,H4
mp-19906,Zr2InNi2,Zr2InNi2,132.33,150.91,57.6,0.30994,132.23,148.73,56.659,0.31253,132.28,57.13,149.82,0.31123,tetragonal,0,7.891005881,H4
mp-31208,LiIn2Ir,LiIn2Ir,82.667,178.71,78.4,0.13971,82.667,177.98,77.983,0.14116,82.667,78.191,178.34,0.14043,cubic,0,10.15575438,H1a
mp-863711,ErGaRh2,ErGaRh2,153,136.24,50.4,0.35159,153,135.43,50.067,0.35247,153,50.234,135.83,0.35203,cubic,0,11.04536496,H1a
mp-4187,Ge2N2O,Ge2N2O,119,169.66,67.2,0.26238,117.45,147.35,57.071,0.29091,118.22,62.135,158.62,0.27639,orthorhombic,2.639,4.4148608,H2
mp-1018057,HfBe,HfBe,111.44,170.49,68.467,0.24503,110.81,155.28,61.305,0.26645,111.13,64.886,162.94,0.25562,orthorhombic,0,9.945969622,H4
mp-998974,TiFeCoAs,TiFeCoAs,147.67,148.2,55.6,0.33273,147.67,130.35,48.173,0.35288,147.67,51.887,139.34,0.34273,cubic,0,7.925932959,H1a
mp-616575,MnB,MnB,163.56,231.85,91.733,0.26374,147.25,20.85,7.0611,0.4764,155.4,49.397,133.99,0.35629,tetragonal,0,4.811233012,H4
mp-1081,V3S4,V3S4,99.556,173.13,71.533,0.21016,96.959,167.3,68.992,0.21243,98.257,70.263,170.21,0.21128,monoclinic,0,4.297379252,H4
mp-3011,Th(GeRh)2,Th(GeRh)2,161,134.45,49.4,0.36082,159.61,126.67,46.307,0.36773,160.3,47.854,130.57,0.36425,tetragonal,0,10.46803562,H4
mp-8181,Li2CeN2,Li2CeN2,111.56,171.07,68.733,0.24442,108.79,155.56,61.649,0.26168,110.17,65.191,163.35,0.25288,trigonal,1.2874,4.945453705,H2
mp-4321,MgSiO3,MgSiO3,112.33,186.04,76,0.22397,84.901,153.73,64.149,0.19822,98.617,70.075,169.97,0.21275,monoclinic,4.5343,3.173545868,H2
mp-1029791,MgSnN2,MgSnN2,120.67,157.49,61.4,0.28248,120.33,156.37,60.92,0.28341,120.5,61.16,156.93,0.28294,orthorhombic,1.0621,4.957185027,H2
mp-8275,CdGeO3,CdGeO3,148.44,159.25,60.267,0.3212,140.43,122.81,45.344,0.35424,144.44,52.805,141.21,0.33706,trigonal,1.3882,6.512947354,H2
mp-19735,La2CuO4,La2CuO4,144.33,151.11,57,0.32551,144.1,131.39,48.736,0.34803,144.22,52.868,141.33,0.33667,tetragonal,0,6.998499442,H4
mp-31469,Hf5CuSn3,Hf5CuSn3,118.33,160.08,62.8,0.27453,118.14,156.35,61.099,0.27944,118.24,61.95,158.22,0.27698,hexagonal,0,11.70255273,H4
mp-31451,ZrCoBi,ZrCoBi,117,162.82,64.2,0.26806,117,154.83,60.508,0.27944,117,62.354,158.84,0.27373,cubic,1.0123,9.832643679,H5
mp-1025302,HgPPd5,HgPPd5,165.22,139.05,51.133,0.35973,163.8,115.2,41.655,0.38279,164.51,46.394,127.22,0.37111,tetragonal,0,11.22269579,H4
mp-10898,ScAlNi2,ScAlNi2,133,152.37,58.2,0.30906,133,144.75,54.886,0.31861,133,56.543,148.57,0.31382,cubic,0,5.675438555,H1a
mp-5489,LuTaO4,LuTaO4,147.89,172.21,65.933,0.30593,116.06,126.15,47.826,0.31885,131.98,56.88,149.2,0.31158,monoclinic,4.373,9.223565362,H2
mp-1025415,CePd7,CePd7,153,143.5,53.4,0.34368,153,126.58,46.464,0.36211,153,49.932,135.1,0.35283,cubic,0,11.02583984,H1a
mp-865362,Zn3Ir,Zn3Ir,145.56,162.72,61.933,0.31368,145.3,116.82,42.758,0.36601,145.43,52.346,140.21,0.33931,tetragonal,0,11.38838028,H4
mp-11454,Hf2Pd,Hf2Pd,138.11,157.38,60.067,0.31008,135.6,134.3,50.301,0.33494,136.86,55.184,145.94,0.32228,tetragonal,0,13.11480888,H4
mp-510219,Sn2Ru,Sn2Ru,117.67,158.65,62.2,0.27529,117.53,157.97,61.9,0.27599,117.6,62.05,158.31,0.27564,tetragonal,0,9.316369994,H4
mp-556075,SrDy2O4,SrDy2O4,116.22,163.36,64.533,0.26573,110.81,158.23,62.689,0.26201,113.52,63.611,160.8,0.26391,orthorhombic,4.0223,7.558416131,H2
mp-5427,Mg2P2O7,Mg2P2O7,118.56,169,66.933,0.26242,114.44,148.82,57.987,0.28325,116.5,62.46,158.97,0.27257,monoclinic,5.326,3.049157983,H2
mp-35208,NdOF,NdOF,126.67,156.35,60.4,0.29428,126.67,148.55,56.937,0.30454,126.67,58.668,152.47,0.29939,cubic,5.2925,6.585385433,H2
mp-5951,CeMnNi4,CeMnNi4,130.33,152.43,58.4,0.30507,130.33,147.75,56.349,0.31106,130.33,57.375,150.1,0.30806,cubic,0,8.563119489,H1a
mp-21065,SiP2,SiP2,84.667,177.62,77.2,0.15036,84.667,175.41,75.955,0.1547,84.667,76.577,176.52,0.15253,cubic,0,3.158508921,H1a
mp-864944,MnBe2Pt,MnBe2Pt,168.33,182.58,69.2,0.31923,168.33,60.496,21.004,0.4401,168.33,45.102,124.21,0.37702,cubic,0,10.21476587,H1a
mp-866069,MgScRh2,MgScRh2,128.67,151.27,58,0.30405,128.67,150.73,57.761,0.30476,128.67,57.881,151,0.30441,cubic,0,7.097466735,H1a
mp-861652,LiLuPt2,LiLuPt2,108.67,13.608,4.6,0.47913,108.67,272.88,126.16,0.081469,108.67,65.381,163.38,0.24942,cubic,0,13.72203585,H1a
mp-569366,Nb3Tl,Nb3Tl,136,156.92,60,0.30769,136,135.09,50.617,0.33445,136,55.309,146.12,0.32093,cubic,0,10.40138781,H1a
mp-763353,Fe4O5F3,Fe4O5F3,136.67,173.65,67.4,0.28823,110.79,134.3,51.734,0.29796,123.73,59.567,153.99,0.29257,orthorhombic,0,4.386428532,H4
mp-317,SnRh,SnRh,138.67,144.33,54.4,0.32653,138.67,144.16,54.328,0.32673,138.67,54.364,144.24,0.32663,cubic,0,10.39065791,H1a
mp-11512,LiAl2Ir,LiAl2Ir,135,180.79,70.8,0.2768,135,109.95,40.295,0.36426,135,55.548,146.54,0.31908,cubic,0,7.608512799,H1a
mp-975190,RbTeO3,RbTeO3,103.67,167.8,68.2,0.23022,103.67,164.27,66.456,0.23591,103.67,67.328,166.04,0.23306,cubic,0,5.968416044,H1a
mp-864926,HfPaTc2,HfPaTc2,168,140.42,51.6,0.36069,168,107.1,38.423,0.39375,168,45.011,123.96,0.37702,cubic,0,13.24559556,H1a
mp-173,MnAl6,MnAl6,103.78,168.78,68.667,0.22895,103.6,163.14,65.914,0.23754,103.69,67.29,165.97,0.23322,orthorhombic,0,3.352783148,H4
mp-568687,TbGa2Co3,TbGa2Co3,113.67,164.2,65.2,0.25923,112.49,156.56,61.733,0.26805,113.08,63.466,160.39,0.2636,hexagonal,0,8.852297622,H4
mp-9460,Zn3N2,Zn3N2,129.67,151.42,58,0.30537,129.67,148.35,56.651,0.30932,129.67,57.326,149.89,0.30734,cubic,0.4325,6.216175783,H5
mp-754553,Zn3N2,Zn3N2,132.56,150.33,57.333,0.31099,131.26,146.52,55.754,0.31396,131.91,56.544,148.42,0.31247,orthorhombic,0.2182,6.167421779,H2
mp-12954,CuBS2,CuBS2,114.11,166.56,66.267,0.25673,114.05,152.64,59.77,0.27694,114.08,63.018,159.66,0.26675,tetragonal,1.9146,4.04170472,H1a
mp-864661,ZnCuPd2,ZnCuPd2,146,161.09,61.2,0.31611,146,115.71,42.295,0.36791,146,51.748,138.84,0.34151,cubic,0,10.12904485,H1a
mp-16481,TiAlAu,TiAlAu,131.44,153.21,58.667,0.30574,124.78,148.06,56.848,0.30223,128.11,57.757,150.63,0.30403,hexagonal,0,9.08277017,H4
mp-505820,NiPS,NiPS,118,157.84,61.8,0.27706,118,156.15,61.02,0.27946,118,61.41,157,0.27826,cubic,0,4.765128753,H1a
mp-978853,Sr(GeIr)2,Sr(GeIr)2,113.89,169.16,67.533,0.25244,103.72,156.04,62.453,0.24925,108.8,64.993,162.6,0.25092,tetragonal,0,10.55118401,H4
mp-979910,VCuRh2,VCuRh2,214.33,160.61,58.4,0.37511,214.33,14.437,4.8485,0.48877,214.33,31.624,90.425,0.42968,cubic,0,9.928876882,H1a
mp-4323,Nd(SiPd)2,Nd(SiPd)2,124.67,156.45,60.6,0.29084,122.98,150.1,57.883,0.29658,123.82,59.242,153.28,0.29369,tetragonal,0,7.6389824,H4
mp-861953,AlFeRh2,AlFeRh2,192.67,177.22,65.8,0.34669,192.67,27.949,9.469,0.47582,192.67,37.635,106,0.4083,cubic,0,8.787100446,H1a
mp-864897,Zr2CuOs,Zr2CuOs,165,135.74,49.8,0.36289,165,115.09,41.588,0.38374,165,45.694,125.5,0.37324,cubic,0,10.20714239,H1a
mp-5170,NdCoSi2,NdCoSi2,118.33,158.78,62.2,0.27637,117.33,155.1,60.601,0.27968,117.83,61.401,156.94,0.27801,orthorhombic,0,6.221141673,H4
mp-680677,Sn3Ru2,Sn3Ru2,127.78,155.34,59.867,0.29738,126.29,146.74,56.162,0.30635,127.03,58.015,151.05,0.30182,tetragonal,0,9.453350882,H4
mp-865566,LuZnRh2,LuZnRh2,145.67,142.28,53.2,0.33721,145.67,135.12,50.217,0.3454,145.67,51.709,138.71,0.34129,cubic,0,11.36508294,H1a
mp-4878,ZrGeSe,ZrGeSe,102.89,170.65,69.733,0.22357,101.94,161.51,65.34,0.23594,102.41,67.537,166.1,0.2297,tetragonal,0,6.867661139,H4
mp-862832,PaTlO3,PaTlO3,131.67,155.81,59.8,0.30277,131.67,139.91,52.882,0.32289,131.67,56.341,147.92,0.31275,cubic,2.9186,9.387794206,H2
mp-1373,Nb3Ge,Nb3Ge,171.33,121.59,44,0.38172,171.33,120.14,43.429,0.38314,171.33,43.714,120.86,0.38243,cubic,0,8.418834173,H1a
mp-1025261,MgPPd5,MgPPd5,135.89,154.93,59.133,0.30998,134.88,135.84,50.987,0.33214,135.38,55.06,145.46,0.32093,tetragonal,0,8.956963534,H4
mp-2092,CePd3,CePd3,128.67,149.91,57.4,0.30582,128.67,149.75,57.332,0.30602,128.67,57.366,149.83,0.30592,cubic,0,10.53362105,H1a
mp-1003322,CaMnO2,CaMnO2,110.89,165.5,66.133,0.25125,110.49,156.63,61.972,0.26374,110.69,64.053,161.09,0.25745,orthorhombic,2.1349,4.160596125,H2
mp-754213,Li2ZrCuO4,Li2ZrCuO4,130.89,185.38,73.333,0.26395,91.839,135.91,54.22,0.25335,111.36,63.777,160.66,0.25956,tetragonal,0,4.794474944,H4
mp-18835,VPO4,VPO4,112.56,169.25,67.733,0.24938,99.266,158.27,64.114,0.23427,105.91,65.924,163.79,0.24226,orthorhombic,1.9277,3.57556372,H2
mp-18767,LiMnO2,LiMnO2,111.89,179.34,72.733,0.23286,94.545,151.18,61.281,0.2335,103.22,67.007,165.26,0.23315,orthorhombic,0.0471,4.020585474,H2
mp-7565,SbRu,SbRu,150,159.29,60.2,0.32301,142.96,115.57,42.324,0.36527,146.48,51.262,137.72,0.3433,orthorhombic,0,9.815874508,H4
mp-977585,Zr3Tl,Zr3Tl,121,161.05,63,0.27817,121,147.61,56.919,0.29668,121,59.959,154.38,0.28736,cubic,0,8.76301174,H1a
mp-1009592,CrFeTe,CrFeTe,104.33,165.15,66.8,0.23618,104.33,163.86,66.168,0.23824,104.33,66.484,164.51,0.23721,cubic,0,7.756716457,H1a
mp-864939,Hf2CuIr,Hf2CuIr,167.33,127.42,46.4,0.37309,167.33,119.02,43.077,0.38146,167.33,44.738,123.23,0.37726,cubic,0,14.64003208,H1a
mp-510691,Hf5Sn4,Hf5Sn4,111.44,162.14,64.467,0.25752,111.44,158.38,62.693,0.26314,111.44,63.58,160.26,0.26032,hexagonal,0,11.51977876,H4
mp-997004,CaAgO2,CaAgO2,122.56,88.144,31.933,0.38013,115.11,213.19,89.477,0.19133,118.83,60.705,155.62,0.28174,orthorhombic,0,5.401588466,H4
mp-669917,ZrRh,ZrRh,158.56,134.09,49.333,0.35905,153.83,127.63,46.865,0.36171,156.19,48.099,130.86,0.36036,orthorhombic,0,8.702258262,H4
mp-718,SnPd3,SnPd3,146,145.64,54.6,0.33374,146,129.87,48.038,0.35175,146,51.319,137.81,0.34268,cubic,0,10.97337466,H1a
mp-999298,Pd3Au,Pd3Au,176,130.49,47.4,0.37643,176,103.28,36.829,0.4022,176,42.114,117.01,0.3892,cubic,0,13.33996523,H1a
mp-850251,Na2Ti9O19,Na2Ti9O19,130.67,157.46,60.6,0.29916,117.9,146.72,56.755,0.29259,124.28,58.677,152.1,0.29603,monoclinic,1.7662,3.53949277,H4
mp-862312,LiBePd2,LiBePd2,123.33,155.33,60.2,0.2901,123.33,149.99,57.81,0.2973,123.33,59.005,152.67,0.29369,cubic,0,7.893538581,H1a
mp-770107,Fe2CuO4,Fe2CuO4,159.33,141.67,52.4,0.35181,159.33,115.17,41.743,0.37953,159.33,47.072,128.56,0.36553,cubic,0,5.168246862,H1a
mp-1025285,Ce2Re2Si2C,Ce2Re2Si2C,122,163.42,64,0.27674,119.37,145.08,55.909,0.29743,120.68,59.955,154.31,0.28689,monoclinic,0,9.565360503,H4
mp-983430,HfZnPt2,HfZnPt2,212,132.34,47.4,0.39596,212,47.609,16.276,0.46257,212,31.838,90.96,0.42849,cubic,0,15.79006788,H1a
mp-22205,InN,InN,105.78,169.76,68.867,0.23252,103.56,158.06,63.448,0.24562,104.67,66.158,163.93,0.23897,hexagonal,0.4777,6.641890506,H1a
mp-377,LuRh,LuRh,137.33,145.1,54.8,0.32391,137.33,141.45,53.245,0.32833,137.33,54.023,143.28,0.32612,cubic,0,12.1933067,H1a
mp-30867,ScRu,ScRu,144.33,141.66,53,0.33642,144.33,135.47,50.414,0.34357,144.33,51.707,138.57,0.33999,cubic,0,7.298257331,H1a
mp-486,NiP2,NiP2,121.78,202.64,82.867,0.22267,81.224,128.61,52.022,0.2361,101.5,67.445,165.64,0.22801,monoclinic,0.5831,4.476788434,H4
mp-862854,PaPd3,PaPd3,151.33,143.34,53.4,0.34214,149.59,125.28,46.045,0.36042,150.46,49.722,134.37,0.35116,hexagonal,0,12.67484726,H4
mp-570698,V3Au,V3Au,180.33,146.3,53.6,0.36478,180.33,79.114,27.723,0.42688,180.33,40.661,113.46,0.39514,cubic,0,9.956123559,H1a
mp-761293,ZrCoO3,ZrCoO3,156.89,143.72,53.333,0.34733,149.6,120.89,44.27,0.36533,153.25,48.802,132.36,0.35605,trigonal,0,5.459938236,H2
mp-9023,ScSiAu,ScSiAu,116.44,161.13,63.467,0.26938,108.92,156.54,62.095,0.26047,112.68,62.781,158.84,0.26506,hexagonal,0,8.307446526,H4
mp-2812,HoFe5,HoFe5,104.44,168.57,68.467,0.23101,96.812,163.27,66.971,0.21893,100.63,67.719,165.93,0.22517,hexagonal,0,8.679527092,H4
mp-28795,LaSi2Ru,LaSi2Ru,123.67,161.13,62.8,0.28285,121.69,143.91,55.227,0.3029,122.68,59.014,152.58,0.29271,monoclinic,0,6.373250515,H4
mp-14024,Zr3O,Zr3O,132.22,153.48,58.733,0.30654,132.22,139.2,52.546,0.32454,132.22,55.64,146.39,0.31548,trigonal,0,6.59217533,H2
mp-567841,Be3P2,Be3P2,91.667,175.3,74.2,0.18127,91.667,166.02,69.281,0.19815,91.667,71.741,170.69,0.18965,cubic,0.8887,2.232448293,H5
mp-555370,V(MoS2)2,V(MoS2)2,96.222,173.14,72.133,0.20011,93.082,165.07,68.528,0.20443,94.652,70.331,169.11,0.20223,monoclinic,0,5.417967946,H4
mp-11918,Ca(BeN)2,Ca(BeN)2,132.56,196.75,78.533,0.25262,91.564,121.18,47.357,0.27943,112.06,62.945,159.05,0.26344,tetragonal,2.4433,2.678713421,H4
mp-1017,Zr3O,Zr3O,133.78,150.35,57.267,0.31269,133.72,140.09,52.848,0.32539,133.75,55.057,145.24,0.31901,hexagonal,0,6.60617782,H4
mp-1969,NbSb2,NbSb2,97.889,172.95,71.733,0.20553,96.177,162.49,66.679,0.21842,97.033,69.206,167.74,0.21188,monoclinic,0,8.046466073,H4
mp-27148,BeP2,BeP2,89.667,174.47,74.2,0.1757,89.664,168.73,71.113,0.18636,89.665,72.657,171.62,0.18101,monoclinic,0.8591,2.475281417,H4
mp-765406,Nd2NiO4,Nd2NiO4,129.56,169.55,66.133,0.28188,124.65,128.8,48.503,0.32778,127.1,57.318,149.48,0.30399,orthorhombic,0.7101,6.957071589,H2
mp-30790,ZrMo3,ZrMo3,195.67,140.26,50.8,0.38053,195.67,62.068,21.445,0.44713,195.67,36.123,102.09,0.41304,cubic,0,8.92156846,H1a
mp-971703,V3Ag,V3Ag,171.33,151.49,56,0.35263,171.33,85.761,30.271,0.41657,171.33,43.135,119.39,0.38386,cubic,0,7.402433196,H1a
mp-7947,PtO,PtO,191.89,114.65,40.933,0.40042,180.69,102.82,36.588,0.40516,186.29,38.761,108.74,0.40271,tetragonal,0,13.11196089,H4
mp-19326,MnO2,MnO2,108.44,182.98,75.067,0.21878,97.363,145.36,58.091,0.25117,102.9,66.579,164.3,0.23389,orthorhombic,0,4.581472862,H4
mp-864902,MgTlRh2,MgTlRh2,130.67,154.3,59.2,0.30319,130.67,139.73,52.857,0.32177,130.67,56.029,147.07,0.31242,cubic,0,10.79248717,H1a
mp-561419,V2FeS4,V2FeS4,91.667,176.04,74.6,0.17992,88.845,166.34,70.011,0.18796,90.256,72.305,171.2,0.18386,monoclinic,0,4.646491587,H4
mp-1547,NiS,NiS,123.67,155.39,60.2,0.29058,123.59,147.79,56.811,0.3007,123.63,58.506,151.6,0.29562,trigonal,0,5.477143979,H2
mp-19149,NaNiO2,NaNiO2,101.22,170.13,69.733,0.21987,98.021,162.11,66.202,0.22436,99.622,67.967,166.12,0.22208,monoclinic,0.3543,4.599449327,H4
mp-11335,BeSe,BeSe,82.333,179.22,78.8,0.1372,82.333,170.7,73.933,0.15445,82.333,76.366,174.99,0.14576,cubic,0.0747,4.894063804,H5
mp-977128,NaRu3,NaRu3,172.11,137.42,50.267,0.36693,171.39,99.754,35.55,0.40299,171.75,42.909,118.83,0.38469,tetragonal,0,9.186959216,H4
mp-1030,SbPt7,SbPt7,210,100.55,35.4,0.4202,210,82.022,28.581,0.4349,210,31.991,91.334,0.42751,cubic,0,18.86655619,H1a
mp-864807,HfZnNi2,HfZnNi2,150.33,140.84,52.4,0.34386,150.33,126.01,46.316,0.3603,150.33,49.358,133.47,0.35203,cubic,0,10.75546839,H1a
mp-4969,TbCoSi2,TbCoSi2,118,157.41,61.6,0.27767,116.42,153.06,59.75,0.28087,117.21,60.675,155.24,0.27926,orthorhombic,0,6.956555169,H4
mp-2212,ScCo,ScCo,121,154.47,60,0.28723,121,151.14,58.5,0.29181,121,59.25,152.81,0.28952,cubic,0,5.682768497,H1a