Material_ID,Formula,pretty_formula,KV ,EV ,GV ,PV ,KR ,ER ,GR ,PR ,bulk,shear,young,poisson,csyst,gap,density,y_cla
mp-20083,ScCuSi,ScCuSi,111.44,162.98,64.867,0.25626,110.89,141.81,55.099,0.28686,111.17,59.983,152.52,0.27134,orthorhombic,0,4.808726933,H4
mp-11073,Ti3In3Rh2,Ti3In3Rh2,122.44,145.93,56.067,0.30137,121.38,145.42,55.917,0.30032,121.91,55.992,145.67,0.30085,hexagonal,0,7.99263361,H4
mp-4954,La(SiPd)2,La(SiPd)2,127.89,145.53,55.533,0.31034,126.32,138.7,52.656,0.317,127.1,54.095,142.12,0.31364,tetragonal,0,7.319848039,H4
mp-973983,NiPd3,NiPd3,172.78,126.41,45.867,0.37806,172.24,95.181,33.803,0.4079,172.51,39.835,110.96,0.3928,hexagonal,0,11.2859885,H4
mp-8742,DyCoSi2,DyCoSi2,112.67,154.16,60.6,0.27195,111.03,149.51,58.607,0.27556,111.85,59.603,151.84,0.27374,orthorhombic,0,7.086604209,H4
mp-1029378,Mg2SbN3,Mg2SbN3,114.78,150.38,58.667,0.28164,114.08,149.99,58.551,0.28086,114.43,58.609,150.18,0.28125,orthorhombic,1.3583,4.22309486,H2
mp-19923,GdAl2,GdAl2,114,150.52,58.8,0.27994,114,150.34,58.719,0.2802,114,58.759,150.43,0.28007,cubic,0,5.660330479,H1a
mp-27512,Cr2NiS4,Cr2NiS4,113.11,157.84,62.267,0.26743,110.77,145.4,56.743,0.28123,111.94,59.505,151.64,0.27422,monoclinic,0,4.883169725,H4
mp-30821,LiAl2Rh,LiAl2Rh,118.67,172.97,68.8,0.25706,118.67,120.33,45.203,0.331,118.67,57.001,147.4,0.29297,cubic,0,4.941954124,H1a
mp-864931,MgCo2,MgCo2,118.78,148.01,57.267,0.29231,118.75,146.64,56.652,0.2942,118.76,56.959,147.33,0.29325,hexagonal,0,5.939632647,H4
mp-20883,Fe3Sn,Fe3Sn,130.67,142.85,54.2,0.31779,127.71,138.28,52.397,0.31954,129.19,53.298,140.56,0.31866,hexagonal,0,8.459837036,H4
mp-997161,CoAuO2,CoAuO2,161,142.3,52.6,0.35269,135.65,112.99,41.504,0.36118,148.32,47.052,127.66,0.35656,trigonal,0.5223,10.52640824,H2
mp-36033,PrOF,PrOF,121.67,148.8,57.4,0.29616,121.67,141.83,54.311,0.30571,121.67,55.855,145.33,0.30092,cubic,5.1926,6.287764671,H2
mp-31093,Dy2CoSi2,Dy2CoSi2,103,160.29,64.6,0.24063,101.55,154.27,61.866,0.24681,102.28,63.233,157.28,0.24369,monoclinic,0,7.765342159,H4
mp-31456,HfSbRu,HfSbRu,146.67,129.35,47.8,0.35301,146.67,127.67,47.112,0.35493,146.67,47.456,128.51,0.35397,cubic,0,10.56733185,H1a
mp-16115,Pr2CuO4,Pr2CuO4,130.11,146.16,55.667,0.31278,126.68,135.4,51.214,0.32186,128.39,53.44,140.79,0.31725,orthorhombic,0,7.120850347,H4
mp-755071,SnO2,SnO2,140.78,141.43,53.067,0.33256,139.86,123.78,45.759,0.3525,140.32,49.413,132.67,0.34242,tetragonal,1.5009,5.87214163,H1a
mp-552028,Nd2Ti2S2O5,Nd2Ti2S2O5,129.33,152.73,58.6,0.30318,125.08,129.85,48.929,0.32698,127.21,53.764,141.38,0.31477,tetragonal,0.8242,5.012983166,H1a
mp-568748,Fe2B,Fe2B,173.56,151.03,55.733,0.35496,173.53,65.324,22.725,0.43726,173.54,39.229,109.44,0.39489,tetragonal,0,6.646477473,H4
mp-644278,Y2H2C,Y2H2C,95.444,161.83,66.467,0.2174,94.62,160.12,65.733,0.21796,95.032,66.1,160.98,0.21768,trigonal,0,4.528940514,H2
mp-10932,ErSF,ErSF,115,150.71,58.8,0.28158,114.94,147.37,57.283,0.28632,114.97,58.042,149.04,0.28394,tetragonal,1.3255,7.567748547,H1a
mp-30750,CeAl4Ni,CeAl4Ni,98.444,162.37,66.267,0.22511,98.142,155.65,62.981,0.23567,98.293,64.624,159.02,0.23036,orthorhombic,0,4.80790245,H4
mp-1828,ThOs2,ThOs2,213,81.024,28.2,0.4366,213,80.534,28.022,0.43698,213,28.111,80.779,0.43679,cubic,0,17.60785477,H1a
mp-19248,BaSm2CoO5,BaSm2CoO5,116,157.44,61.8,0.27379,115.59,138.86,53.414,0.29979,115.8,57.607,148.24,0.28664,orthorhombic,1.579,7.14926086,H2
mp-754403,ZrO2,ZrO2,175.22,125.71,45.533,0.38043,172.48,91.232,32.31,0.41184,173.85,38.921,108.66,0.39583,tetragonal,3.7569,4.597082244,H4
mp-8134,UO3,UO3,168.56,198.06,75.933,0.30416,166.05,16.917,5.7036,0.48302,167.3,40.818,113.25,0.38719,trigonal,1.64,9.10178204,H2
mp-569196,YNi3,YNi3,132.22,139.64,52.733,0.32399,132.19,135.1,50.801,0.32967,132.21,51.767,137.37,0.32682,trigonal,0,7.60099949,H2
mp-754363,Ba2HfO4,Ba2HfO4,110.22,155.21,61.333,0.26531,109.68,148.12,58.091,0.27492,109.95,59.712,151.68,0.27008,tetragonal,3.5468,7.165757161,H4
mp-2,Pd,Pd,160.33,137.35,50.6,0.35722,160.33,98.265,35.149,0.39785,160.33,42.874,118.1,0.37724,cubic,0,11.40807747,H1a
mp-6521,LiLaTiO4,LiLaTiO4,124.67,159.99,62.2,0.28611,116.5,129.68,49.326,0.31448,120.58,55.763,144.95,0.29966,tetragonal,2.2831,4.862618552,H4
mp-558125,BaTiO3,BaTiO3,104.11,161.13,64.867,0.24205,100.22,151.5,60.697,0.24804,102.16,62.782,156.32,0.24498,orthorhombic,2.0811,5.615825036,H2
mp-238,MnPd,MnPd,134.11,158.61,60.867,0.30289,133.72,112.76,41.474,0.35945,133.91,51.17,136.17,0.33053,tetragonal,0,8.761293367,H4
mp-30683,ZrGa2,ZrGa2,100,159.06,64.4,0.23491,99.656,156.29,63.089,0.23862,99.828,63.744,157.67,0.23676,orthorhombic,0,7.049950111,H4
mp-998527,NiBiO3,NiBiO3,124.67,145.67,55.8,0.30526,119.33,142.14,54.608,0.30147,122,55.204,143.91,0.3034,trigonal,0,8.204130792,H2
mp-543001,Zr5Sn4,Zr5Sn4,103.56,155.75,62.333,0.24933,103.5,155,61.981,0.25041,103.53,62.157,155.38,0.24987,hexagonal,0,7.607774398,H4
mp-30819,LiAl2Pt,LiAl2Pt,127,175.26,69,0.27,127,103.38,37.886,0.36433,127,53.443,140.61,0.31548,cubic,0,7.526715416,H1a
mp-639910,Y(Sn3Ru2)2,Y(Sn3Ru2)2,119.89,145.67,56.133,0.2975,119.87,144.73,55.716,0.29878,119.88,55.925,145.2,0.29814,tetragonal,0,8.453608045,H4
mp-770649,Li5NbO5,Li5NbO5,101.22,164.94,67.133,0.22843,96.113,151.37,61.159,0.23751,98.668,64.146,158.16,0.23284,monoclinic,2.9339,3.088230201,H2
mp-865870,LiZr2Os,LiZr2Os,135.67,135.49,50.8,0.33355,135.67,133.95,50.15,0.33545,135.67,50.475,134.72,0.3345,cubic,0,8.741678112,H1a
mp-813,ScAl2,ScAl2,88,164.11,69,0.18919,88,163.75,68.809,0.18987,88,68.904,163.93,0.18953,cubic,0,3.00975007,H1a
mp-556242,YF3,YF3,134,135.77,51,0.33113,134,135.71,50.971,0.33121,134,50.985,135.74,0.33117,cubic,5.6323,4.653596135,H2
mp-1020011,Li14P2(N2O)3,Li14P2(N2O)3,86.667,165.83,70.2,0.1811,86.579,163.29,68.863,0.18565,86.623,69.531,164.56,0.18337,trigonal,3.6203,2.129730461,H2
mp-989695,Cu,Cu,142.22,134.11,49.933,0.34285,142.21,126.18,46.66,0.35212,142.22,48.296,130.16,0.34747,hexagonal,0,8.930286105,H4
mp-18198,ScSnPt,ScSnPt,120.44,148.74,57.467,0.29417,116.87,142.76,55.061,0.29641,118.66,56.264,145.75,0.29527,hexagonal,0,9.999031475,H4
mp-865219,Dy2IrRu,Dy2IrRu,126,141.75,54,0.3125,126,140.22,53.336,0.31452,126,53.668,140.99,0.31351,cubic,0,12.89713116,H1a
mp-29364,Li5SbO5,Li5SbO5,98.444,164.76,67.467,0.22106,95.792,152.82,61.916,0.23411,97.118,64.691,158.81,0.22746,monoclinic,2.9218,3.53111586,H2
mp-1029921,Ca3Al3N5,Ca3Al3N5,115.22,164.42,65.133,0.26217,110.69,133.75,51.499,0.29861,112.96,58.316,149.26,0.27977,triclinic,2.6073,3.034418599,H5
mp-1172,MgRh,MgRh,114.33,152.33,59.6,0.27794,114.33,144.38,55.983,0.28953,114.33,57.792,148.38,0.28371,cubic,0,6.911663556,H1a
mp-30673,Ti2Ga3,Ti2Ga3,91.111,166.17,69.467,0.19603,91.023,157.95,65.225,0.21079,91.067,67.346,162.08,0.20336,tetragonal,0,6.382990598,H4
mvc-13900,YCuO3,YCuO3,131.11,153.61,58.867,0.30473,109.8,135.3,52.252,0.29464,120.46,55.56,144.47,0.30011,orthorhombic,0,5.958386638,H4
mp-976763,NiAsO3,NiAsO3,121.33,146.95,56.6,0.29815,121.33,140.79,53.877,0.3066,121.33,55.239,143.88,0.30236,cubic,0,5.971293737,H1a
mp-22206,TbCoSi,TbCoSi,106.78,168.82,68.267,0.23649,99.521,141.36,55.948,0.26327,103.15,62.107,155.18,0.24927,orthorhombic,0,8.133737973,H4
mp-999053,Ti2GaNi,Ti2GaNi,161.33,127.02,46.4,0.36878,161.33,106.27,38.223,0.39021,161.33,42.311,116.73,0.37941,cubic,0,6.37503516,H1a
mp-8311,Si3NiP4,Si3NiP4,104.67,158.66,63.6,0.24735,104.66,149.73,59.341,0.26157,104.66,61.471,154.22,0.25442,tetragonal,0.3369,3.138289447,H1a
mp-569775,ZrAl3,ZrAl3,100,157.43,63.6,0.23762,100,156.46,63.127,0.23924,100,63.364,156.94,0.23843,cubic,0,4.127421134,H1a
mp-12962,Zr6FeSb2,Zr6FeSb2,113.33,150.39,58.8,0.27884,112.72,147.63,57.59,0.28171,113.02,58.195,149.01,0.28027,hexagonal,0,7.276886406,H4
mp-21069,YSiRu,YSiRu,130.56,148.21,56.533,0.3108,129.8,127.43,47.68,0.33637,130.18,52.106,137.92,0.32342,orthorhombic,0,6.660670085,H4
mp-976598,LiHf2Ir,LiHf2Ir,105.67,153.47,61,0.25794,105.67,153.47,61,0.25794,105.67,61,153.47,0.25794,cubic,0,13.17784291,H1a
mp-29463,LiBeN,LiBeN,104.67,182.79,75.6,0.20893,82.965,137.8,56.328,0.22318,93.816,65.964,160.32,0.21519,monoclinic,2.6955,1.928563009,H2
mp-754812,Al2O3,Al2O3,132.11,165.45,64.067,0.29127,128.89,108.31,39.823,0.35994,130.5,51.945,137.58,0.32429,monoclinic,4.3996,2.967299486,H2
mp-1111,Mn5Si3,Mn5Si3,148.56,159.42,60.333,0.32115,147.5,90.058,32.204,0.39824,148.03,46.269,125.71,0.35846,hexagonal,0,6.046788731,H4
mp-2121,ScAl3,ScAl3,84.333,165.22,70.4,0.17347,84.333,165.21,70.392,0.1735,84.333,70.396,165.22,0.17348,cubic,0,3.017273431,H1a
mp-685194,Li4Ti5O12,Li4Ti5O12,109.56,161.41,64.333,0.25445,106.01,142.53,55.856,0.2759,107.78,60.095,152.03,0.26491,monoclinic,2.66,3.383783008,H2
mp-5387,YNbO4,YNbO4,136.11,147.43,55.867,0.31947,128.51,124.95,46.695,0.33795,132.31,51.281,136.24,0.32838,monoclinic,3.5137,5.316367852,H2
mp-867909,ScCdRh2,ScCdRh2,138.33,140.99,53,0.33013,138.33,123.21,45.582,0.35155,138.33,49.291,132.17,0.34075,cubic,0,8.934660826,H1a
mp-24289,HPd,HPd,174,121.23,43.8,0.38388,174,92.511,32.773,0.41139,174,38.287,107.01,0.3975,cubic,0,10.05426703,H1a
mp-253,ScCo2,ScCo2,142.33,132.83,49.4,0.34446,142.33,125.31,46.3,0.35326,142.33,47.85,129.09,0.34885,cubic,0,6.582231542,H1a
mp-5839,TiPO4,TiPO4,105.33,162.56,65.4,0.24279,94.895,149.71,60.509,0.23707,100.11,62.954,156.14,0.24007,orthorhombic,0.0583,3.386626539,H2
mp-514,HfZn2,HfZn2,113.33,148.21,57.8,0.28205,113.33,147.92,57.672,0.28246,113.33,57.736,148.06,0.28226,cubic,0,10.32375444,H1a
mp-755287,Ca3CdO4,Ca3CdO4,103.11,155.08,62.067,0.24933,102.95,153.64,61.392,0.25128,103.03,61.729,154.36,0.2503,orthorhombic,2.5352,4.39799808,H2
mp-1029903,LiNbN2,LiNbN2,119.89,167.59,66.133,0.26703,103.71,130.29,50.476,0.29062,111.8,58.304,149.01,0.27786,orthorhombic,1.2059,4.359774687,H2
mp-580357,Cu3Pd,Cu3Pd,146.44,140.61,52.467,0.33998,146.44,111.34,40.539,0.37328,146.44,46.503,126.15,0.35642,cubic,0,9.62310567,H1a
mp-571651,TiSe,TiSe,105.44,162.72,65.467,0.2428,104.06,143.69,56.58,0.26985,104.75,61.023,153.3,0.25609,orthorhombic,0,5.951808115,H4
mp-1020118,MgSiO3,MgSiO3,91.333,163.05,67.8,0.20246,89.195,159.98,66.597,0.20107,90.264,67.198,161.51,0.20177,orthorhombic,4.5584,3.133463698,H2
mp-11176,Ca3(SiIr)4,Ca3(SiIr)4,131.67,136.44,51.4,0.32728,131.67,135.68,51.073,0.32826,131.67,51.237,136.06,0.32777,cubic,0,7.954887782,H1a
mp-755714,SrEuO2,SrEuO2,104.67,153.65,61.2,0.25533,104.31,152.97,60.917,0.25558,104.49,61.058,153.31,0.25546,trigonal,0,6.600573198,H2
mp-30840,Ti2Pd3,Ti2Pd3,156.89,135.43,49.933,0.35613,156.76,101.6,36.494,0.39198,156.82,43.214,118.73,0.37381,orthorhombic,0,8.738526756,H4
mp-10746,Mg2Cu3Si,Mg2Cu3Si,98,158.48,64.4,0.23047,97.996,155.61,62.982,0.23535,97.998,63.691,157.05,0.2329,hexagonal,0,5.162069556,H4
mp-20120,FeSe,FeSe,106.56,152.69,60.533,0.26118,106.54,151.27,59.87,0.26336,106.55,60.202,151.98,0.26227,cubic,0,7.936340599,H1a
mp-505599,VNiSb,VNiSb,127.33,139.63,53,0.31724,127.33,137.91,52.257,0.31949,127.33,52.629,138.77,0.31837,cubic,0,7.453169028,H1a
mp-1024071,SiPt2,SiPt2,188,135.25,49,0.3801,183.73,59.048,20.411,0.44644,185.87,34.706,98.017,0.41211,hexagonal,0,15.52963004,H4
mp-774155,Li2FeO3,Li2FeO3,99.778,165.97,67.867,0.22277,97.848,146.78,58.714,0.24998,98.813,63.29,156.47,0.23609,monoclinic,0.0807,3.628809133,H4
mp-30672,Ti3Ga,Ti3Ga,117.89,147.56,57.133,0.29138,117.7,142.09,54.701,0.29879,117.79,55.917,144.83,0.29508,hexagonal,0,5.416551144,H4
mp-1925,ZrS,ZrS,131.33,173.97,68,0.27922,131.33,95.006,34.436,0.37943,131.33,51.218,135.98,0.32744,cubic,0,5.668866809,H1a
mp-1595,Nb2O5,Nb2O5,144.22,142.92,53.533,0.33484,133.65,118.66,43.883,0.35203,138.94,48.708,130.84,0.34305,monoclinic,2.2196,4.28747847,H2
mp-755543,HoHO2,HoHO2,112.56,154.42,60.733,0.27134,110.38,142.73,55.559,0.28449,111.47,58.146,148.6,0.27782,orthorhombic,4.7585,7.118652668,H2
mp-12899,HoSi,HoSi,91.778,166.41,69.467,0.1978,91.772,153.8,62.996,0.22069,91.775,66.231,160.17,0.20913,orthorhombic,0,7.513612499,H4
mp-9835,CoSb2,CoSb2,99.889,169.31,69.533,0.2175,96.484,143.51,57.309,0.2521,98.186,63.421,156.56,0.23425,orthorhombic,0,8.180590537,H4
mp-1008918,CdN,CdN,143,129.51,48,0.34906,143,126.04,46.573,0.35311,143,47.286,127.78,0.35108,cubic,0,7.772732256,H1a
mp-30657,TiGaNi2,TiGaNi2,166,156.33,58.2,0.34304,166,64.144,22.34,0.4356,166,40.27,111.77,0.38778,cubic,0,7.652008897,H1a
mp-1025236,Sc(TiGa2)2,Sc(TiGa2)2,102.44,160.28,64.667,0.23925,102.17,147.71,58.661,0.25904,102.31,61.664,154.04,0.24905,tetragonal,0,5.821963291,H4
mp-2827,YCo5,YCo5,149.11,127.27,46.867,0.35775,147.09,121.05,44.409,0.36284,148.1,45.638,124.16,0.36027,hexagonal,0,7.647614378,H4
mp-1025408,TmCoSi2,TmCoSi2,114,150.08,58.6,0.28058,112.1,144.57,56.249,0.28506,113.05,57.425,147.33,0.2828,orthorhombic,0,7.440913617,H4
mp-1008881,MgNiH,MgNiH,138.22,145.52,54.933,0.32453,122.49,126.65,47.698,0.32767,130.36,51.316,136.09,0.326,tetragonal,0,4.491099843,H4
mp-11401,ScGa2Ni,ScGa2Ni,107.11,159,63.467,0.2526,105.95,143.43,56.275,0.27437,106.53,59.871,151.27,0.26333,orthorhombic,0,6.425759751,H4
mp-3218,Er(SiPd)2,Er(SiPd)2,132.33,138.87,52.4,0.3251,128.78,132.8,49.994,0.32813,130.56,51.197,135.84,0.32659,tetragonal,0,8.502009607,H4
mp-2598,Ta5Sb4,Ta5Sb4,106.78,162.66,65.267,0.24611,106.74,139.15,54.24,0.28272,106.76,59.753,151.07,0.26415,tetragonal,0,12.04459384,H4
mp-13240,ScInCu4,ScInCu4,113,149.02,58.2,0.28021,113,145.33,56.519,0.28565,113,57.36,147.18,0.28293,cubic,0,7.752516008,H1a
mp-862775,LiInRh2,LiInRh2,154,145.05,54,0.34302,154,93.519,33.429,0.39879,154,43.714,119.81,0.37034,cubic,0,8.879824619,H1a
mp-11873,TlAsPd5,TlAsPd5,136.33,136.98,51.4,0.33254,136.31,126.64,47.074,0.34515,136.32,49.237,131.84,0.33881,tetragonal,0,11.28962868,H4
mp-984873,Al3Fe,Al3Fe,125.33,143.49,54.8,0.30919,125.33,134.77,51.02,0.32078,125.33,52.91,139.15,0.31496,hexagonal,0,4.151306674,H4
mp-12073,Ba(BIr)2,Ba(BIr)2,111,182.84,74.6,0.22547,88.742,126.92,50.302,0.26162,99.871,62.451,155.04,0.24127,tetragonal,0,9.960610184,H4
mp-865696,HoGaRh2,HoGaRh2,142,127.96,47.4,0.34981,142,127.93,47.389,0.34984,142,47.394,127.95,0.34983,cubic,0,10.91603113,H1a
mp-1014230,TiZn,TiZn,115,172.5,69,0.25,115,117.07,44,0.33033,115,56.5,145.65,0.28892,cubic,0,6.036542638,H1a
mp-975288,RbNpO3,RbNpO3,109.33,161.49,64.4,0.25382,109.33,136.31,52.742,0.29222,109.33,58.571,149.09,0.27273,cubic,0,7.569992193,H1a
mp-426,CoSe,CoSe,168.78,112.93,40.667,0.38848,167.65,105.9,37.964,0.39472,168.21,39.316,109.42,0.39159,hexagonal,0,7.803225451,H4
mp-865325,Lu2CoRu,Lu2CoRu,120.33,144.09,55.4,0.30043,120.33,140.07,53.624,0.306,120.33,54.512,142.08,0.30321,cubic,0,11.73745331,H1a
mp-1200,TbCo5,TbCo5,149,127.09,46.8,0.35784,146.2,120.38,44.166,0.36277,147.6,45.483,123.74,0.36028,hexagonal,0,9.060572374,H4
mp-797,DyPd3,DyPd3,131.33,142.94,54.2,0.31861,131.33,126.4,47.179,0.33959,131.33,50.69,134.74,0.32902,cubic,0,11.36798267,H1a
mp-3830,NiAsS,NiAsS,109,150.81,59.4,0.26941,109,147.21,57.736,0.2749,109,58.568,149.01,0.27215,cubic,0,5.955129248,H1a
mp-276,TbNi2,TbNi2,162.67,115.51,41.8,0.38165,162.67,110.31,39.764,0.38698,162.67,40.782,112.91,0.38431,cubic,0,9.965170471,H1a
mp-760539,Li2Ti3O6,Li2Ti3O6,116.89,175.75,70.333,0.24941,97.252,123.98,48.145,0.28754,107.07,59.239,150.05,0.26644,monoclinic,0,3.741173426,H4
mp-1014231,Hf2Zn,Hf2Zn,108.44,164.74,66.067,0.24681,108.44,133.05,51.351,0.29551,108.44,58.709,149.2,0.27069,tetragonal,0,11.75599546,H4
mp-2258,Cu3Au,Cu3Au,141.33,138.48,51.8,0.3367,141.33,116.61,42.792,0.36249,141.33,47.296,127.65,0.34947,cubic,0,11.97461729,H1a
mp-1018075,FeSe,FeSe,103.11,154.25,61.667,0.25067,103.1,150.35,59.808,0.25695,103.1,60.737,152.3,0.2538,tetragonal,0,7.876250345,H4
mp-4250,Tb(SiPd)2,Tb(SiPd)2,126.11,146.04,55.867,0.307,122.26,131.97,49.984,0.3201,124.18,52.925,139.03,0.31342,tetragonal,0,8.210890761,H4
mp-1029739,Li6FeN4,Li6FeN4,83.667,163.47,69.6,0.17436,83.069,162.89,69.422,0.17318,83.368,69.511,163.18,0.17377,tetragonal,0,2.479937207,H4
mp-754588,ZrBiO4,ZrBiO4,127.78,156.68,60.467,0.29563,119.12,121.77,45.791,0.32962,123.45,53.129,139.39,0.31181,tetragonal,0,7.869944407,H4
mp-3539,NbGaNi2,NbGaNi2,192,140.56,51,0.37799,192,39.573,13.5,0.46565,192,32.25,91.62,0.42047,cubic,0,8.649902649,H1a
mp-865900,Ti3Tl,Ti3Tl,110.44,157.67,62.467,0.26206,109.88,137.64,53.299,0.29122,110.16,57.883,147.77,0.27644,tetragonal,0,7.840057831,H4
mp-1016829,MgRuO3,MgRuO3,193.67,140.15,50.8,0.37939,193.67,37.407,12.742,0.46781,193.67,31.771,90.372,0.42223,cubic,0,4.91601049,H1a
mp-571485,Tm(SiPd)2,Tm(SiPd)2,133.11,138.18,52.067,0.32698,127.3,131.16,49.371,0.32829,130.21,50.719,134.67,0.32762,tetragonal,0,8.540938954,H4
mp-19279,Li2MnO2,Li2MnO2,104.67,159.08,63.8,0.24669,104.33,142.91,56.19,0.27169,104.5,59.995,151.07,0.25905,trigonal,0,3.482321158,H2
mp-16529,Al6Ru,Al6Ru,112.22,152.63,59.933,0.27332,110.88,140.73,54.613,0.28846,111.55,57.273,146.71,0.2808,orthorhombic,0,3.9265352,H4
mp-760403,CaCd3O4,CaCd3O4,137.11,131.03,48.867,0.34072,136.66,129.25,48.143,0.34237,136.88,48.505,130.14,0.34154,orthorhombic,0.4561,6.646018539,H2
mp-604496,CeSiHRu,CeSiHRu,107.33,160.58,64.2,0.25065,94.302,145.8,58.683,0.24231,100.82,61.441,153.2,0.24673,tetragonal,0,7.123101363,H4
mp-753693,Ho2Ge2O7,Ho2Ge2O7,138,141.9,53.4,0.32863,131.43,121.11,44.976,0.34641,134.71,49.188,131.55,0.33724,monoclinic,3.851,6.180829527,H2
mp-862901,PmF3,PmF3,145.33,144.62,54.2,0.33415,144.35,103.9,37.646,0.38003,144.84,45.923,124.6,0.35663,tetragonal,5.0991,7.189231382,H4
mp-603930,MgSiO3,MgSiO3,106.44,156.32,62.267,0.25524,102,145.84,57.795,0.26169,104.22,60.031,151.08,0.25839,monoclinic,4.5426,2.980963947,H2
mp-3519,ZrSO,ZrSO,130.33,134.41,50.6,0.32812,130.33,134.4,50.595,0.32814,130.33,50.598,134.4,0.32813,cubic,2.4206,4.809910037,H2
mp-1979,HoPd3,HoPd3,130.67,143.31,54.4,0.3172,130.67,124.87,46.567,0.34073,130.67,50.483,134.17,0.32886,cubic,0,11.5348246,H1a
mp-28266,P2Pd,P2Pd,122.78,171.92,67.867,0.26662,94.435,124.67,48.698,0.27998,108.61,58.282,148.32,0.27239,monoclinic,0.4061,5.431192599,H4
mp-755225,Li8ZrO6,Li8ZrO6,94.333,163.31,67.4,0.21147,94.287,150.08,60.774,0.23472,94.31,64.087,156.75,0.22298,trigonal,4.7626,2.909913098,H2
mp-753802,Sc2Ti2O7,Sc2Ti2O7,140.44,135.21,50.467,0.33955,134.22,123.83,45.992,0.34624,137.33,48.229,129.53,0.34281,monoclinic,3.6211,3.338163574,H2
mp-11382,NdFe5,NdFe5,108.78,149.61,58.867,0.27077,106.39,147.84,58.278,0.26841,107.59,58.572,148.73,0.2696,hexagonal,0,7.777482333,H4
mp-1008872,MnFeTe,MnFeTe,86,161.07,67.8,0.18785,86,161.07,67.799,0.18785,86,67.8,161.07,0.18785,cubic,0,7.923663177,H1a
mp-2529,PrRh2,PrRh2,131.33,137.34,51.8,0.32571,131.33,129.45,48.458,0.33572,131.33,50.129,133.41,0.33069,cubic,0,10.06742835,H1a
mp-2807,ScP,ScP,97.667,160,65.2,0.22697,97.667,149.05,59.829,0.24564,97.667,62.515,154.57,0.23624,cubic,0,3.355315672,H1a
mp-5318,MnCoSb,MnCoSb,114.33,144.42,56,0.28947,114.33,144.42,56,0.28947,114.33,56,144.42,0.28947,cubic,0,7.918378821,H1a
mp-763051,Li2VO2F,Li2VO2F,95.333,162.85,67,0.2153,94.686,149.07,60.225,0.23761,95.01,63.612,156.02,0.22631,trigonal,1.8142,3.475842227,H2
mp-999204,ScAl3,ScAl3,94.222,159.2,65.333,0.21839,94.005,153.82,62.665,0.22729,94.114,63.999,156.52,0.22282,tetragonal,0,2.916630297,H4
mp-865206,TmCdRh2,TmCdRh2,136.33,137.93,51.8,0.33138,136.33,121.7,45.034,0.35122,136.33,48.417,129.88,0.34123,cubic,0,11.23347993,H1a
mp-2512,AsPd5,AsPd5,151.67,125.33,46,0.36228,150.82,113.91,41.449,0.37412,151.25,43.725,119.64,0.36816,monoclinic,0,10.77852945,H4
mp-1029442,Mg2TaN3,Mg2TaN3,125,145.26,55.6,0.30632,119.5,133.16,50.659,0.31428,122.25,53.13,139.22,0.3102,orthorhombic,2.9433,5.567911617,H2
mp-770997,Li2HfO3,Li2HfO3,132.56,200.5,80.333,0.24791,118.27,66.736,23.734,0.40595,125.41,52.033,137.13,0.31775,monoclinic,4.1342,6.419445676,H2
mp-7143,BaPuO3,BaPuO3,114.33,145.75,56.6,0.28754,114.33,142.57,55.166,0.29218,114.33,55.883,144.16,0.28985,cubic,0,8.297389209,H1a
mp-8188,KScO2,KScO2,98.222,160.43,65.333,0.22778,97.178,148.07,59.416,0.24605,97.7,62.375,154.29,0.2368,trigonal,3.6972,3.423675706,H2