Material_ID,Formula,pretty_formula,KV ,EV ,GV ,PV ,KR ,ER ,GR ,PR ,bulk,shear,young,poisson,csyst,gap,density,y_cla
mp-12635,TiAu4,TiAu4,143.89,122.09,44.933,0.35858,143.73,92.601,33.247,0.39262,143.81,39.09,107.53,0.37538,tetragonal,0,15.86669091,H4
mp-569385,DyAl2Ni,DyAl2Ni,97.444,144.91,57.867,0.25214,94.494,133.37,52.724,0.26477,95.969,55.295,139.16,0.25833,orthorhombic,0,6.560884834,H4
mp-1016854,MnCdO3,MnCdO3,62.333,157.2,72.8,0.079677,62.333,154.85,71.295,0.085966,62.333,72.048,156.03,0.082812,cubic,0,6.451628143,H1a
mp-625,Mg3Ru2,Mg3Ru2,107.33,135.2,52.4,0.29006,107.33,128.7,49.496,0.30015,107.33,50.948,131.96,0.29509,cubic,0,5.408089108,H1a
mp-31402,Sm2GeRh3,Sm2GeRh3,127.78,133.79,50.467,0.3255,126.04,103.88,38.119,0.36263,126.91,44.293,119.03,0.34368,trigonal,0,10.14311221,H2
mp-11193,VAuS2,VAuS2,114.89,147.47,57.333,0.28607,96.58,118.41,45.695,0.29566,105.73,51.514,132.95,0.29043,hexagonal,0,7.572687925,H4
mp-559691,Ca2Al2SiO7,Ca2Al2SiO7,103.89,140.11,54.933,0.27523,100.88,129.97,50.562,0.28528,102.39,52.748,135.05,0.28016,tetragonal,4.3108,2.977142405,H4
mp-972877,Sc2AlIr,Sc2AlIr,112.33,138.73,53.6,0.29416,112.33,118.43,44.714,0.32429,112.33,49.157,128.7,0.30905,cubic,0,7.134755939,H1a
mp-3236,Pr2SO2,Pr2SO2,99.889,137.55,54.133,0.27049,99.532,135.77,53.339,0.27266,99.71,53.736,136.66,0.27157,trigonal,3.0053,5.944984045,H2
mp-5916,Yb(SiNi)2,Yb(SiNi)2,94.667,141.17,56.4,0.25147,94.116,138.53,55.204,0.25468,94.391,55.802,139.85,0.25307,tetragonal,0,7.63776858,H4
mp-754349,GdOF,GdOF,110.22,142.64,55.533,0.28431,109.94,117.08,44.263,0.32251,110.08,49.898,130.05,0.30311,tetragonal,3.2045,7.397450115,H4
mp-13094,YAl2Ni,YAl2Ni,92.667,146.83,59.4,0.23592,89.728,136.6,54.803,0.24627,91.198,57.101,141.72,0.24099,orthorhombic,0,4.67297622,H4
mp-9549,ScFeGe,ScFeGe,101.56,141.34,55.733,0.26804,101.55,129.42,50.258,0.2876,101.56,52.996,135.43,0.27774,hexagonal,0,5.96842185,H4
mp-22725,TiInCu2,TiInCu2,120,147.63,57,0.29496,120,98.015,35.933,0.36387,120,46.466,123.46,0.32852,cubic,0,7.837531509,H1a
mp-752467,NbO2F,NbO2F,103.11,151.74,60.467,0.25473,99.472,118.85,45.68,0.30087,101.29,53.073,135.55,0.27697,monoclinic,2.2316,3.985365503,H2
mp-861658,LiMnPt2,LiMnPt2,114,150.52,58.8,0.27994,114,103.04,38.182,0.34935,114,48.491,127.41,0.31373,cubic,0,13.32618497,H1a
mp-4359,Sr2PdO3,Sr2PdO3,100.33,150.08,60,0.25069,90.59,128.08,50.648,0.26437,95.462,55.324,139.1,0.25714,orthorhombic,0.2764,5.848719556,H2
mp-30611,ErSnPt2,ErSnPt2,127.11,120.43,44.867,0.34209,124.76,118.45,44.14,0.34176,125.94,44.504,119.44,0.34193,hexagonal,0,13.82144959,H4
mp-865930,TiZnCu2,TiZnCu2,128.67,162.04,62.8,0.29011,128.67,68.872,24.409,0.41079,128.67,43.605,117.54,0.34775,cubic,0,7.415148674,H1a
mp-16503,HoAl2Ni,HoAl2Ni,96.222,146.41,58.733,0.2464,92.105,133.16,52.881,0.25905,94.163,55.807,139.8,0.25255,orthorhombic,0,6.536177485,H4
mp-865603,Y2IrRh,Y2IrRh,119,124.13,46.8,0.32615,119,123.89,46.698,0.32649,119,46.749,124.01,0.32632,cubic,0,9.641540422,H1a
mp-7003,CePPd,CePPd,106.33,133.69,51.8,0.29045,103.91,132.33,51.382,0.28774,105.12,51.591,133.01,0.28911,hexagonal,0,7.631081048,H4
mp-1534,YS,YS,126.33,142.26,54.2,0.31233,126.33,94.761,34.459,0.37499,126.33,44.329,119.06,0.34293,cubic,0,4.722344361,H1a
mp-550,Al12Mo,Al12Mo,91.667,141.23,56.8,0.24322,91.667,141.2,56.783,0.24328,91.667,56.792,141.21,0.24325,cubic,0,3.195666391,H1a
mp-28614,NaBPt3,NaBPt3,156.33,140.92,52.2,0.34977,153.56,54.608,18.951,0.44073,154.95,35.576,99.14,0.39336,hexagonal,0,13.51092229,H4
mp-1029733,Sr3Al3N5,Sr3Al3N5,104.44,146.11,57.667,0.26685,102.91,121.21,46.485,0.30371,103.68,52.076,133.82,0.28488,triclinic,2.1584,4.163284373,H5
mp-274,Nb5Sb4,Nb5Sb4,97.778,149.16,59.867,0.24575,97.775,125.42,48.754,0.28622,97.777,54.311,137.48,0.26566,tetragonal,0,8.117054597,H4
mp-5456,Sr2CuO3,Sr2CuO3,99.333,141,55.8,0.26343,95.857,134.14,52.945,0.26677,97.595,54.372,137.57,0.26507,orthorhombic,0,5.321943242,H4
mp-21415,Dy(NiGe)2,Dy(NiGe)2,113.44,130.48,49.867,0.3083,112.47,125.15,47.601,0.31454,112.96,48.734,127.82,0.3114,tetragonal,0,8.76278214,H4
mp-18919,CoPdO2,CoPdO2,166.44,138.99,51.067,0.36083,139.1,60.711,21.268,0.42726,152.77,36.168,100.57,0.39029,trigonal,0,7.746726781,H2
mp-20512,FeSn,FeSn,84.778,150.45,62.467,0.20423,83.434,140.26,57.491,0.21982,84.106,59.979,145.38,0.21191,hexagonal,0,7.841701694,H4
mp-11364,TiCu,TiCu,128.44,133.4,50.267,0.32691,128.44,100.96,36.872,0.36899,128.44,43.569,117.43,0.34762,cubic,0,6.349504154,H1a
mp-12760,Zr6Al2Co,Zr6Al2Co,106.67,131.97,51,0.2938,106.57,131.76,50.913,0.29394,106.62,50.956,131.86,0.29387,hexagonal,0,5.99927792,H4
mp-20185,LuNiSb,LuNiSb,80.333,147.94,62,0.19307,80.333,146.84,61.419,0.19536,80.333,61.709,147.39,0.19422,cubic,0.2763,9.626709913,H5
mp-2014,DyP,DyP,83.667,150.7,62.8,0.19981,83.667,140.36,57.504,0.22041,83.667,60.152,145.57,0.21002,cubic,0,7.055056726,H1a
mp-12007,HoCdCu4,HoCdCu4,108.67,131.85,50.8,0.29777,108.67,129.13,49.591,0.30195,108.67,50.196,130.49,0.29986,cubic,0,9.467662584,H1a
mp-230,SbO2,SbO2,95.667,145.58,58.4,0.24638,95.536,131.54,51.767,0.27052,95.602,55.084,138.63,0.25833,orthorhombic,1.9048,6.281214898,H2
mp-1008920,Mn2Ge,Mn2Ge,186,88.644,31.2,0.42057,186,64.24,22.268,0.44244,186,26.734,76.535,0.43142,cubic,0,7.440030534,H1a
mp-975236,RbPtO3,RbPtO3,65.333,154.41,69.8,0.10609,65.333,154.04,69.575,0.10703,65.333,69.687,154.23,0.10656,cubic,0,7.886571278,H1a
mp-867243,Sc2ZnOs,Sc2ZnOs,121,128.58,48.6,0.32289,121,115.72,43.16,0.3406,121,45.88,122.2,0.33169,cubic,0,8.195305252,H1a
mp-1539,ZrTe,ZrTe,95.444,153.84,62.467,0.23136,90.331,125.96,49.685,0.26759,92.888,56.076,140.05,0.24872,hexagonal,0,7.455420405,H4
mp-19817,Y3InC,Y3InC,76.667,149.1,63.4,0.17587,76.667,148.85,63.266,0.17641,76.667,63.333,148.98,0.17614,cubic,0.1037,5.456268489,H5
mp-18721,Mn2P2O7,Mn2P2O7,113.11,135.87,52.267,0.2998,109.98,120.76,45.848,0.317,111.55,49.057,128.36,0.30822,monoclinic,2.3149,3.589660894,H2
mp-7650,RbScO2,RbScO2,95.111,147.22,59.267,0.24202,94.39,130.39,51.342,0.26977,94.751,55.304,138.89,0.25569,hexagonal,3.4968,4.481046505,H1b
mp-20337,ZrPbO3,ZrPbO3,121.89,130.87,49.533,0.32105,116.93,115.25,43.142,0.33572,119.41,46.338,123.09,0.32819,orthorhombic,3.2477,7.53352279,H2
mp-13092,Zr6Al2Ni,Zr6Al2Ni,105.22,132.46,51.333,0.29019,105.11,132.2,51.224,0.29038,105.17,51.279,132.33,0.29029,hexagonal,0,5.959994103,H4
mp-1018694,ErZnGa,ErZnGa,86.111,146.6,60.267,0.21626,84.155,142.09,58.303,0.21859,85.133,59.285,144.35,0.21741,hexagonal,0,8.46960629,H4
mp-1025348,TlPPd5,TlPPd5,125.89,134.18,50.733,0.32236,125.46,102.99,37.777,0.36318,125.67,44.255,118.82,0.34242,tetragonal,0,11.16970179,H4
mp-19983,TiCuSn,TiCuSn,109.44,138.82,53.867,0.28859,96.11,128.76,50.424,0.27672,102.78,52.145,133.81,0.28301,hexagonal,0,7.488611225,H4
mp-30409,Mn2Au,Mn2Au,114.11,151.56,59.267,0.27864,113.4,100.51,37.165,0.35227,113.76,48.216,126.74,0.31431,tetragonal,0,10.95824027,H4
mvc-6615,BiO2,BiO2,125.33,135.66,51.4,0.31961,119.98,105.69,39.052,0.35318,122.65,45.226,120.83,0.33582,orthorhombic,0,8.384115834,H4
mp-2016,PrNi2,PrNi2,149.33,103.56,37.4,0.38443,149.33,101.24,36.496,0.38701,149.33,36.948,102.4,0.38572,cubic,0,8.665865173,H1a
mp-11227,Al12W,Al12W,91.333,140.73,56.6,0.24319,91.333,140.71,56.591,0.24323,91.333,56.595,140.72,0.24321,cubic,0,3.857812654,H1a
mp-864946,MnCuPd2,MnCuPd2,150.67,152.8,57.4,0.33098,150.67,45.49,15.69,0.44968,150.67,36.545,101.43,0.38779,cubic,0,9.577905923,H1a
mp-1208,ErAl2,ErAl2,81.667,146.52,61,0.20098,81.667,145.38,60.409,0.2033,81.667,60.705,145.95,0.20214,cubic,0,6.140750389,H1a
mp-12388,Er3Al3NiGe2,Er3Al3NiGe2,85.111,150.95,62.667,0.2044,84.151,137.6,56.048,0.22748,84.631,59.357,144.33,0.21577,hexagonal,0,7.641166627,H4
mp-1025045,TiGaPd,TiGaPd,124.44,134.3,50.867,0.32013,118.62,107.99,40.046,0.34827,121.53,45.456,121.25,0.33372,hexagonal,0,8.021989118,H4
mp-752398,BaCuO2,BaCuO2,98.222,138.9,54.933,0.2643,96.325,134.77,53.193,0.26681,97.274,54.063,136.84,0.26554,tetragonal,0,6.156723618,H4
mp-22167,Zr6Ga2Co,Zr6Ga2Co,109.56,129.14,49.533,0.30354,109.52,129.03,49.486,0.30365,109.54,49.51,129.08,0.3036,hexagonal,0,6.867478883,H4
mp-1029522,Li7SbN4,Li7SbN4,75,154.17,66.6,0.15741,75,144.12,61.081,0.17973,75,63.841,149.19,0.16846,cubic,2.2181,3.0659707,H2
mp-645,TbP,TbP,87.333,148.04,60.8,0.21747,87.333,137.09,55.349,0.23838,87.333,58.075,142.61,0.22784,cubic,0,6.816053469,H1a
mp-754537,LiLuO2,LiLuO2,111.22,166.42,66.533,0.25062,98.387,95.733,35.779,0.33783,104.8,51.156,131.99,0.2901,trigonal,4.7916,7.604020289,H2
mp-862338,Sc2CuRu,Sc2CuRu,117.67,126.3,47.8,0.32111,117.67,120.9,45.492,0.32876,117.67,46.646,123.6,0.32492,cubic,0,6.225313894,H1a
mp-754741,ZrO2,ZrO2,113.56,145.9,56.733,0.28586,104.59,112.25,42.482,0.32113,109.07,49.608,129.23,0.30253,orthorhombic,3.4273,5.022661251,H2
mp-571520,Si,Si,80.556,149.04,62.533,0.19165,79.628,143.96,60.049,0.19868,80.092,61.291,146.5,0.19514,trigonal,0,2.554261158,H2
mp-1336,PdO,PdO,165.78,105.56,37.867,0.39387,152.52,84.044,29.842,0.40816,159.15,33.854,94.838,0.40068,tetragonal,0,7.793970984,H4
mp-1017629,MgNiH3,MgNiH3,139,115.95,42.6,0.36097,139,101.91,36.984,0.3778,139,39.792,108.98,0.36933,cubic,0,3.873370214,H1a
mp-1009819,SrO,SrO,170.67,151.92,56.2,0.35164,170.67,14.642,4.9275,0.4857,170.67,30.564,86.526,0.4155,cubic,2.7855,5.548740005,H2
mp-669,ThAl2,ThAl2,90.556,153.29,62.933,0.21787,84.112,131.47,53.034,0.23949,87.334,57.984,142.43,0.22819,hexagonal,0,6.748726951,H4
mp-9970,ScGe,ScGe,89.333,151.85,62.4,0.21671,89.33,130.33,51.85,0.25683,89.331,57.125,141.26,0.23644,orthorhombic,0,5.043776617,H4
mp-5175,NaInO2,NaInO2,89.889,145.9,59.333,0.22948,89.409,136,54.553,0.24648,89.649,56.943,140.98,0.2379,trigonal,1.917,5.442992486,H2
mp-754238,Li2CuBiO4,Li2CuBiO4,99.444,137.74,54.267,0.26914,96.363,134.24,52.943,0.26781,97.903,53.605,135.99,0.26849,tetragonal,0,6.580184128,H4
mp-31900,TaMn2O3,TaMn2O3,143.67,128.11,47.4,0.35138,122.43,97.597,35.694,0.36714,133.05,41.547,112.89,0.35858,hexagonal,0,8.12430587,H4
mp-11520,YNiSb,YNiSb,94.333,140.25,56,0.25221,94.333,136.02,53.992,0.25967,94.333,54.996,138.14,0.25593,cubic,0.3486,6.942946663,H5
mp-3574,MnAlCu2,MnAlCu2,124,168.16,66,0.27397,124,64.366,22.768,0.41349,124,44.384,118.96,0.34011,cubic,0,6.685943178,H1a
mp-19418,VCrO4,VCrO4,99.778,141.24,55.867,0.26408,90.795,133.56,53.216,0.25484,95.286,54.542,137.41,0.25966,orthorhombic,2.0549,3.756065467,H2
mp-984356,CsIrO3,CsIrO3,54.333,160.99,80,0.0061728,54.333,151.48,73.155,0.035337,54.333,76.577,156.3,0.020547,cubic,0,9.031453834,H1a
mp-4302,Nd(NiGe)2,Nd(NiGe)2,101.78,137.8,54.067,0.27435,101.62,129.03,50.073,0.28839,101.7,52.07,133.44,0.28133,tetragonal,0,7.967548303,H4
mp-865926,Cd2PdRh,Cd2PdRh,122.67,139.44,53.2,0.31054,122.67,99.241,36.348,0.36516,122.67,44.774,119.75,0.33729,cubic,0,10.41991096,H1a
mp-5109,Y(NiGe)2,Y(NiGe)2,114.78,137.94,53.067,0.2997,96.808,123.66,48.038,0.2871,105.79,50.552,130.82,0.29391,tetragonal,0,7.185182284,H4
mp-1029782,Ca3W3N5,Ca3W3N5,112.33,134.7,51.8,0.30015,107.95,121.31,46.204,0.31271,110.14,49.002,128.02,0.30628,triclinic,0,7.313295329,H4
mp-4025,TmNiSb,TmNiSb,81.333,146.02,60.8,0.20079,81.333,144.49,60.008,0.20392,81.333,60.404,145.25,0.20235,cubic,0.3138,9.317107226,H5
mp-9960,Y3TlC,Y3TlC,75,148.75,63.6,0.16944,75,148.21,63.303,0.17064,75,63.451,148.48,0.17004,cubic,0.1185,6.687686745,H5
mp-971694,Ge3N2,Ge3N2,99.333,134.99,53,0.2735,99.333,134.46,52.752,0.2744,99.333,52.876,134.72,0.27395,cubic,0.5271,4.588092122,H5
mp-715553,VO2,VO2,107.11,161.5,64.667,0.2487,87.233,110.09,42.683,0.28966,97.172,53.675,135.99,0.26676,triclinic,0,4.05221486,H4
mp-980200,Zn3Rh,Zn3Rh,127.67,118.4,44,0.34543,127.65,113.82,42.113,0.35138,127.66,43.056,116.11,0.3484,hexagonal,0,8.778304329,H4
mp-13434,CaMgNi4,CaMgNi4,106.33,132.36,51.2,0.29254,106.33,128.04,49.271,0.29932,106.33,50.235,130.2,0.29592,cubic,0,5.803056316,H1a
mp-1424,GePd,GePd,122.89,137.02,52.133,0.31416,122.46,101.21,37.149,0.36225,122.67,44.641,119.44,0.33773,orthorhombic,0,8.924258472,H4
mp-19856,SnPt,SnPt,128.44,128.68,48.267,0.33303,126.12,103.63,38.015,0.36305,127.28,43.141,116.29,0.34773,hexagonal,0,12.45369291,H4
mp-1025552,LuGa2Ni,LuGa2Ni,92.111,149.24,60.667,0.22997,85.808,132.2,53.17,0.24322,88.96,56.918,140.74,0.23632,orthorhombic,0,9.281117507,H4
mp-892,ScPt,ScPt,136,114.24,42,0.36,136,106.19,38.76,0.36986,136,40.38,110.23,0.36491,cubic,0,11.00577503,H1a
mp-643409,Ba4Y(CuO3)3,Ba4Y(CuO3)3,103.67,134.97,52.6,0.283,103.67,128.53,49.689,0.29336,103.67,51.145,131.76,0.28816,cubic,0,5.935703754,H1a
mp-16491,SrAl9Co2,SrAl9Co2,82.667,145.32,60.2,0.20701,82.579,143.21,59.131,0.21096,82.623,59.666,144.27,0.20898,hexagonal,0,3.512871095,H4
mp-771986,Li4Fe3O8,Li4Fe3O8,95.444,156.66,63.867,0.22644,87.226,121.57,47.948,0.26771,91.335,55.907,139.3,0.24581,trigonal,0.1331,3.751341195,H2
mp-631555,MnVNi,MnVNi,204.67,72.066,25,0.44131,204.67,49.491,16.952,0.4597,204.67,20.976,60.85,0.45045,cubic,0,6.665725222,H1a
mp-7819,Pd4S,Pd4S,147.33,105.48,38.2,0.38067,147,99.14,35.724,0.3876,147.17,36.962,102.32,0.38412,tetragonal,0,9.933411846,H4
mp-11231,YAl3,YAl3,76.333,147.48,62.6,0.17798,76.333,147.47,62.591,0.17802,76.333,62.596,147.48,0.178,cubic,0,3.642539567,H1a
mp-861995,PaNi2Sn,PaNi2Sn,141,110.13,40.2,0.36982,141,103,37.366,0.37825,141,38.783,106.58,0.37402,cubic,0,11.25814318,H1a
mp-23804,Mg2FeH6,Mg2FeH6,79.667,145.79,61,0.195,79.667,145.61,60.903,0.19539,79.667,60.952,145.7,0.19519,cubic,1.9505,2.776777432,H5
mp-8370,Ni3GeC,Ni3GeC,141.33,122.54,45.2,0.3555,141.33,89.443,32.069,0.39452,141.33,38.635,106.22,0.37473,cubic,0,7.836248952,H1a
mp-862682,Ba2Ga2O5,Ba2Ga2O5,100.67,158.02,63.8,0.23838,99.72,107.7,40.795,0.32,100.19,52.297,133.64,0.2777,tetragonal,0.0225,6.185061164,H1a
mp-550820,SmZnPO,SmZnPO,94,138.49,55.2,0.25445,93.256,136.78,54.468,0.25555,93.628,54.834,137.63,0.255,trigonal,1.3677,6.2283214,H2
mp-22964,PbClF,PbClF,61.889,65.478,24.733,0.32367,101.34,217.44,95.167,0.1424,81.614,59.95,144.48,0.20496,tetragonal,3.7187,6.856774346,H4
mp-1013527,BeGeP2,BeGeP2,71.778,152.37,66.467,0.1462,71.705,146.41,63.126,0.15969,71.741,64.796,149.41,0.1529,tetragonal,0.9116,3.348982165,H1a
mp-1029562,Li3InN2,Li3InN2,85.333,146.22,60.2,0.21442,85.333,138.43,56.287,0.22964,85.333,58.244,142.35,0.22198,cubic,1.0921,4.078534194,H5
mp-862862,Pa3Sb,Pa3Sb,106.67,162.49,65.2,0.24611,106.67,93.261,34.432,0.35428,106.67,49.816,129.32,0.29794,cubic,0,13.882212,H1a
mp-675464,CdIn2O4,CdIn2O4,131.67,118.28,43.8,0.35027,131.13,107.32,39.352,0.36359,131.4,41.576,112.83,0.35689,orthorhombic,0.1908,6.691945252,H2
mp-2322,YAl2,YAl2,79.667,145.79,61,0.195,79.667,144.66,60.409,0.19736,79.667,60.705,145.23,0.19618,cubic,0,3.879200231,H1a
mp-867794,Sc2CuIr,Sc2CuIr,125.67,122.99,46,0.33688,125.67,109.96,40.6,0.35417,125.67,43.3,116.52,0.34547,cubic,0,8.472757723,H1a
mp-1007730,HfAl3,HfAl3,105,130.34,50.4,0.2931,105,129.97,50.233,0.2937,105,50.316,130.16,0.2934,cubic,0,6.280012236,H1a
mp-9459,Y4C5,Y4C5,101.67,140.65,55.4,0.26942,100.1,124.66,48.227,0.29244,100.88,51.814,132.72,0.28074,orthorhombic,0,4.729248328,H4
mp-4287,Sr2SnO4,Sr2SnO4,107.56,131.07,50.533,0.29689,105.63,126.92,48.825,0.29975,106.59,49.679,129,0.2983,tetragonal,3.1001,5.495762112,H4
mp-1019358,ThAsS,ThAsS,99.333,136.29,53.6,0.27133,99.308,130.88,51.11,0.28035,99.321,52.355,133.59,0.27582,tetragonal,0,8.29960336,H4
mp-22698,DyFeSi,DyFeSi,93.778,147.68,59.667,0.23754,88.97,129,51.257,0.25835,91.374,55.462,138.39,0.24758,tetragonal,0,7.731271335,H4
mp-862376,Sc2CuTc,Sc2CuTc,112.33,126.51,48.2,0.31231,112.33,123.94,47.086,0.31611,112.33,47.643,125.23,0.31421,cubic,0,6.141147063,H1a
mp-8122,ErCuSi,ErCuSi,86.667,154.07,64,0.2037,73.831,135.11,56.534,0.19499,80.249,60.267,144.6,0.19968,hexagonal,0,7.905653123,H4
mp-972406,YbSi2Ni,YbSi2Ni,88.778,144.23,58.667,0.22923,86.263,136.89,55.397,0.23552,87.52,57.032,140.56,0.23232,orthorhombic,0,7.233186811,H4
mp-1002124,HfC,HfC,163.67,114.03,41.2,0.38388,163.67,64.301,22.412,0.43452,163.67,31.806,89.613,0.40874,cubic,0.5774,9.868235893,H5
mp-978509,Si3Ru,Si3Ru,153.67,102.75,37,0.38855,153.67,90.588,32.312,0.40175,153.67,34.656,96.699,0.39512,cubic,0,5.616075873,H1a
mp-547622,Pm2O3,Pm2O3,133.67,146.03,55.4,0.31792,124.23,80.21,28.803,0.39239,128.95,42.101,113.91,0.35277,trigonal,3.9592,7.33873675,H2
mp-5419,LiGa2Ir,LiGa2Ir,126,147.23,56.4,0.30525,126,82.293,29.577,0.39115,126,42.989,115.8,0.34683,cubic,0,9.902983731,H1a
mp-2348,Zr2Au,Zr2Au,119.22,129.6,49.133,0.31883,119.22,110.92,41.235,0.34493,119.22,45.184,120.35,0.33175,tetragonal,0,9.786632269,H4
mp-961678,ScCoTe,ScCoTe,93.333,137.49,54.8,0.25448,93.333,136.22,54.196,0.25675,93.333,54.498,136.86,0.25561,cubic,0.8694,6.845131526,H5
mp-7384,SmF3,SmF3,114.56,129.88,49.533,0.31104,108.98,120.58,45.829,0.31558,111.77,47.681,125.23,0.31325,orthorhombic,7.8606,6.51059387,H2
mp-1018647,YbNiH3,YbNiH3,90.667,138.49,55.6,0.24542,90.667,138.38,55.546,0.24562,90.667,55.573,138.44,0.24552,cubic,0,9.326303706,H1a
mp-7821,VSb,VSb,102.78,144.89,57.267,0.26504,101.75,117.35,44.866,0.30779,102.27,51.066,131.34,0.28595,hexagonal,0,6.911122144,H4
mp-567589,DyAl3,DyAl3,76.333,146.37,62,0.18041,76.333,146.33,61.976,0.18051,76.333,61.988,146.35,0.18046,cubic,0,5.24630107,H1a
mp-30242,Mg4H2O5,Mg4H2O5,89.222,159.09,66.133,0.20282,69.561,130.39,54.896,0.18759,79.391,60.515,144.76,0.1961,trigonal,4.0065,3.012779405,H2
mp-1476,ScS,ScS,101.67,147.47,58.6,0.25825,101.67,114.99,43.839,0.31149,101.67,51.219,131.56,0.28432,cubic,0,3.593258671,H1a
mp-865608,LuPaOs2,LuPaOs2,162,92.705,33,0.40462,162,87.954,31.2,0.40951,162,32.1,90.334,0.40706,cubic,0,16.42154553,H1a
mp-19225,FeAgO2,FeAgO2,135.78,145.53,55.067,0.32137,126.57,76.704,27.414,0.39899,131.17,41.24,111.99,0.35771,trigonal,1.1648,6.307568995,H2
mp-560530,Nb2Cd2O7,Nb2Cd2O7,119.44,123.87,46.667,0.32716,115.26,118.81,44.728,0.32819,117.35,45.697,121.34,0.32767,orthorhombic,2.1745,5.857760441,H2
mp-1016880,ZnRhO3,ZnRhO3,158.33,97.794,35,0.39706,158.33,87.963,31.25,0.40741,158.33,33.125,92.897,0.40221,cubic,0,6.096070584,H1a
mp-977396,TbMgRh2,TbMgRh2,114,123.5,46.8,0.31944,114,123.39,46.753,0.3196,114,46.777,123.45,0.31952,cubic,0,9.005215724,H1a
mp-1025224,V(CrS2)2,V(CrS2)2,86.444,145.52,59.667,0.21944,82.61,137.77,56.368,0.22205,84.527,58.017,141.65,0.22071,monoclinic,0,4.105472347,H4
mp-18966,FeAgO2,FeAgO2,136,145.4,55,0.32181,126.21,76.662,27.404,0.39876,131.1,41.202,111.88,0.35777,hexagonal,1.1606,6.272928029,H1a
mp-754825,NaTmO2,NaTmO2,88.556,155.76,64.533,0.20684,79.128,128.11,52.072,0.23016,83.842,58.303,141.99,0.21773,trigonal,4.0729,6.820327023,H2
mp-756597,Li2HfO3,Li2HfO3,98.889,159.82,64.933,0.23064,91.874,109.48,42.062,0.3014,95.381,53.498,135.21,0.26373,monoclinic,4.699,6.403028616,H2
mp-18962,Sr2CaMoO6,Sr2CaMoO6,98,144.49,57.6,0.25427,98,122.39,47.368,0.29186,98,52.484,133.6,0.27279,cubic,2.2698,4.640426535,H2
mp-865257,DyZnRh2,DyZnRh2,129,115.13,42.6,0.35126,129,111.32,41.041,0.35618,129,41.82,113.23,0.35371,cubic,0,10.64784411,H1a
mp-16524,ScAlPd2,ScAlPd2,130.67,114.78,42.4,0.35359,130.67,109.27,40.155,0.36062,130.67,41.278,112.04,0.3571,cubic,0,7.241819969,H1a
mp-20489,SrPbO3,SrPbO3,105.22,129.79,50.133,0.29442,105.09,128.26,49.461,0.29658,105.15,49.797,129.02,0.2955,orthorhombic,0.7941,7.396339188,H2
mp-1025453,SmSi2Rh,SmSi2Rh,128.44,116.7,43.267,0.34858,126.5,111.61,41.248,0.35295,127.47,42.257,114.16,0.35074,orthorhombic,0,6.955977281,H4
mp-4883,Ba(FeP)2,Ba(FeP)2,93.667,144.23,58,0.24336,86.745,132.06,52.981,0.24627,90.206,55.491,138.14,0.24476,tetragonal,0,5.702756859,H4
mp-866165,YMgRh2,YMgRh2,110.67,125.35,47.8,0.31122,110.67,125.35,47.799,0.31122,110.67,47.799,125.35,0.31122,cubic,0,7.383399508,H1a
mp-3385,Sr(PPd)2,Sr(PPd)2,105.44,131.02,50.667,0.29292,104.5,126.93,48.911,0.29756,104.97,49.789,128.98,0.29522,tetragonal,0,6.690013284,H4
mp-30073,La(FeSb3)4,La(FeSb3)4,87.889,142.89,58.133,0.22902,87.888,135.89,54.694,0.2423,87.889,56.413,139.41,0.23563,cubic,0,7.81011895,H1a
mp-9173,TiO2,TiO2,100.89,152.58,61.133,0.24794,87.782,118.43,46.436,0.27515,94.336,53.785,135.59,0.26045,orthorhombic,2.499,3.746152493,H2