Material_ID,Formula,pretty_formula,KV ,EV ,GV ,PV ,KR ,ER ,GR ,PR ,bulk,shear,young,poisson,csyst,gap,density,y_cla
mp-985,TmCu,TmCu,76.667,108.68,43,0.26374,76.667,108.68,43,0.26374,76.667,43,108.68,0.26374,cubic,0,9.692169405,H1a
mp-10627,SrS,SrS,137,90.097,32.4,0.39039,137,43.8,15.138,0.44672,137,23.769,67.408,0.418,cubic,1.886,4.025755566,H5
mp-2647,Al2Au,Al2Au,104.67,96.408,35.8,0.34648,104.67,83.939,30.717,0.36634,104.67,33.258,90.219,0.35634,cubic,0,7.476904945,H1a
mp-981391,Hg3Ir,Hg3Ir,130.22,55.81,19.533,0.42857,129.43,88.713,32.009,0.38576,129.83,25.771,72.515,0.40691,tetragonal,0,16.62506888,H4
mp-690542,Li4WO5,Li4WO5,70.111,147.33,64.067,0.14978,45.364,90.521,38.769,0.16743,57.737,51.418,118.95,0.15665,tetragonal,3.0426,5.19554843,H4
mp-754154,CsHoO2,CsHoO2,83.333,119.11,47.2,0.26178,81.745,90.02,34.19,0.31646,82.539,40.695,104.85,0.28828,hexagonal,2.8143,7.321607149,H1b
mp-16522,Al2Pd,Al2Pd,112.33,86.171,31.4,0.37215,112.33,83.425,30.309,0.37622,112.33,30.855,84.8,0.37418,cubic,0,5.071368202,H1a
mvc-3559,YMoO3,YMoO3,153.33,103.76,37.4,0.38721,151.22,4.8982,1.6386,0.4946,152.28,19.519,56.158,0.43853,hexagonal,0,5.358551394,H4
mp-27296,ZrTi2O,ZrTi2O,113.11,117.48,44.267,0.3269,97.441,60.704,21.739,0.39617,105.28,33.003,89.642,0.35809,hexagonal,0,5.35708013,H4
mp-5492,SrAl2O4,SrAl2O4,80.333,107.74,42.2,0.27648,77.974,105.95,41.597,0.27353,79.154,41.898,106.84,0.27503,hexagonal,4.0564,3.433796301,H1b
mp-31438,YZrSb,YZrSb,80.333,112.48,44.4,0.26664,80.107,99.608,38.525,0.29276,80.22,41.463,106.11,0.27955,tetragonal,0,6.558519268,H4
mp-21890,NdCoSi,NdCoSi,93.111,113.29,43.667,0.29721,79.639,91.048,34.766,0.30946,86.375,39.216,102.18,0.30283,tetragonal,0,6.690048259,H4
mp-1025281,Ti2NiSe4,Ti2NiSe4,77.444,110.27,43.667,0.26268,76.564,105.89,41.704,0.2695,77.004,42.685,108.08,0.26606,monoclinic,0,5.934784932,H4
mp-753848,Li(CuO)3,Li(CuO)3,106.78,121.74,46.467,0.30998,61.53,85.109,33.522,0.26946,84.154,39.994,103.57,0.29487,tetragonal,0,5.666416654,H4
mp-861880,AcCdRh2,AcCdRh2,111.33,86.105,31.4,0.3711,111.33,84.456,30.743,0.37357,111.33,31.072,85.281,0.37233,cubic,0,10.74639798,H1a
mp-8397,CsSrF3,CsSrF3,167,48.765,16.8,0.45133,167,41.535,14.239,0.45855,167,15.519,45.159,0.45493,cubic,6.4758,4.081815101,H2
mp-1077723,Zr,Zr,90.556,58.307,20.933,0.39269,88.511,137.17,55.235,0.2417,89.533,38.084,100.06,0.31373,orthorhombic,0,6.406607342,H4
mp-867300,Rb2Hf2O5,Rb2Hf2O5,94.778,117.15,45.267,0.29399,77.886,86.902,33.067,0.31404,86.332,39.167,102.07,0.30296,tetragonal,2.1263,6.696302058,H4
mp-4488,Sr(FeAs)2,Sr(FeAs)2,83.111,116.22,45.867,0.26694,72.406,98.704,38.775,0.2728,77.758,42.321,107.47,0.26966,tetragonal,0,6.319998834,H4
mp-30661,ScGaPd2,ScGaPd2,130.33,90.273,32.6,0.38456,130.33,52.482,18.313,0.43289,130.33,25.457,71.702,0.40831,cubic,0,8.307613839,H1a
mp-30818,Li2AlPt,Li2AlPt,87.667,114.84,44.8,0.28168,87.667,86.875,32.541,0.33484,87.667,38.671,101.14,0.30772,cubic,0,7.064853782,H1a
mp-567197,YSnAu,YSnAu,80,108.97,42.8,0.27298,76.364,105.15,41.383,0.2705,78.182,42.091,107.06,0.27177,hexagonal,0,9.354826629,H4
mp-567214,NdSnRh,NdSnRh,101.22,94.952,35.333,0.34366,101.08,88.957,32.866,0.35332,101.15,34.1,91.965,0.34847,hexagonal,0,8.948171537,H4
mp-21297,LiSn4Ru,LiSn4Ru,68,114.99,47.2,0.21815,67.993,111.02,45.207,0.22787,67.997,46.203,113.01,0.22299,tetragonal,0,7.586186399,H4
mp-1093,ThGe,ThGe,79.333,119,47.6,0.25,79.333,92.941,35.616,0.30475,79.333,41.608,106.25,0.27679,cubic,0,8.972931905,H1a
mp-11870,Hg2Rh,Hg2Rh,88.444,109.82,42.467,0.29305,87.068,91.686,34.612,0.32449,87.756,38.539,100.85,0.30846,tetragonal,0,12.53113912,H4
mp-973979,LiFePd2,LiFePd2,117.33,117.33,44,0.33333,117.33,41.054,14.238,0.44169,117.33,29.119,80.683,0.38539,cubic,0,8.325875832,H1a
mp-9853,LuP5,LuP5,68.333,116.68,48,0.21542,64.833,110.7,45.54,0.21542,66.583,46.77,113.69,0.21542,monoclinic,0.1902,4.630168895,H4
mp-1873,ZnF2,ZnF2,100.67,103.62,39,0.32845,96.364,83.473,30.788,0.35563,98.516,34.894,93.627,0.3416,tetragonal,3.4773,4.674879836,H4
mp-570179,TbAu2,TbAu2,99.556,100.5,37.733,0.33175,96.879,87.031,32.227,0.35027,98.217,34.98,93.805,0.34082,tetragonal,0,14.20241901,H4
mp-567305,CeAl3,CeAl3,62.333,123.16,52.6,0.1707,59.719,109.99,46.096,0.19304,61.026,49.348,116.61,0.18153,hexagonal,0,4.43938026,H4
mp-1008634,Au,Au,135.56,69.946,24.733,0.414,134.79,65.733,23.166,0.41872,135.18,23.95,67.843,0.41635,hexagonal,0,17.93443571,H4
mp-865659,Y2ZnIr,Y2ZnIr,94,97.186,36.6,0.32768,94,96.017,36.103,0.32976,94,36.352,96.602,0.32872,cubic,0,8.453617322,H1a
mp-21054,PrSnPd,PrSnPd,82.333,105.93,41.2,0.28557,82.321,102.45,39.63,0.29258,82.327,40.415,104.2,0.28906,hexagonal,0,8.505999469,H4
mp-1882,CaCu5,CaCu5,92.111,99.445,37.667,0.32006,89.628,97.744,37.074,0.31824,90.87,37.37,98.595,0.31916,hexagonal,0,6.536938774,H4
mp-20663,TmCuPb,TmCuPb,70.111,113.77,46.267,0.22954,67.738,110.64,45.059,0.22777,68.924,45.663,112.21,0.22867,hexagonal,0,10.84516441,H4
mp-754126,CuAuO2,CuAuO2,155.67,96.12,34.4,0.39709,130.58,26.407,9.0045,0.4663,143.12,21.702,61.974,0.42783,trigonal,0,9.927749747,H2
mp-203,NiTe,NiTe,100.89,92.99,34.533,0.34638,100.68,90.764,33.623,0.34975,100.78,34.078,91.879,0.34806,hexagonal,0,8.389331571,H4
mp-12716,LiTlPd2,LiTlPd2,96.111,100.88,38.067,0.32506,95.938,89.201,33.159,0.34504,96.024,35.613,95.084,0.33497,tetragonal,0,10.54362696,H4
mp-1551,Te2Ir,Te2Ir,86.778,118.29,46.467,0.27282,65.177,97.608,39.031,0.2504,75.977,42.749,107.99,0.2631,monoclinic,0,10.04148775,H4
mp-36779,PNO,PNO,54.556,128.04,57.733,0.10885,47.82,113.66,51.484,0.10385,51.188,54.609,120.85,0.10651,triclinic,4.9202,2.558131306,H5
mvc-6389,WO2,WO2,118.44,124.68,47.067,0.32455,113.32,34.04,11.738,0.44994,115.88,29.403,81.329,0.38303,orthorhombic,0.3526,8.272221781,H2
mp-33032,La2O3,La2O3,101.33,112.55,42.8,0.31488,101.33,68.979,24.874,0.38655,101.33,33.837,91.344,0.34976,cubic,0.4562,5.659525195,H5
mp-14105,AlTlO2,AlTlO2,99.333,112.27,42.8,0.31162,99.333,72.107,26.145,0.37901,99.333,34.472,92.694,0.34447,cubic,2.2544,6.61887108,H2
mp-865588,Y2CuRu,Y2CuRu,92.667,97.962,37,0.32381,92.667,96.356,36.314,0.3267,92.667,36.657,97.16,0.32525,cubic,0,6.952855532,H1a
mp-1018128,ScAg2,ScAg2,86.556,114.04,44.533,0.28041,85.587,88.43,33.3,0.3278,86.071,38.917,101.46,0.30354,tetragonal,0,7.528866831,H4
mp-30408,MgAu3,MgAu3,111,86.584,31.6,0.36999,110.94,82.643,30.034,0.37584,110.97,30.817,84.618,0.37291,orthorhombic,0,14.26979115,H4
mp-30354,ScAg4,ScAg4,92.222,106.52,40.733,0.3075,92.22,88.049,32.833,0.34087,92.221,36.783,97.4,0.32397,tetragonal,0,8.589180982,H4
mp-865450,ThGa3,ThGa3,81,116.03,46,0.26125,67.578,101.54,40.628,0.24958,74.289,43.314,108.8,0.25591,hexagonal,0,8.743066587,H4
mp-1029633,CaSnN2,CaSnN2,99.222,101.88,38.333,0.32887,90.849,89.135,33.347,0.33648,95.036,35.84,95.514,0.33249,orthorhombic,1.3772,4.568704636,H2
mp-756034,NaSmO2,NaSmO2,74.333,125.32,51.4,0.21902,64.977,97.511,39.008,0.24988,69.655,45.204,111.49,0.23322,trigonal,4.0559,5.617390913,H2
mp-19889,ThPb,ThPb,74.889,53.404,19.333,0.38115,74.714,154.47,66.846,0.15542,74.802,43.09,108.45,0.25837,tetragonal,0,12.01695498,H4
mp-10602,Sm3GaC,Sm3GaC,65,114.39,47.4,0.20668,65,113.71,47.047,0.20844,65,47.223,114.05,0.20756,cubic,0,7.068898462,H1a
mp-20086,MnSn2,MnSn2,64.111,117.66,49.267,0.19412,63.865,111.49,46.108,0.20904,63.988,47.687,114.59,0.20152,tetragonal,0,8.165669137,H4
mp-510417,WO3,WO3,65.222,127.94,54.533,0.17306,60.479,102.11,41.898,0.2186,62.85,48.216,115.19,0.19454,orthorhombic,1.355,6.674643184,H2
mp-1029776,Li2GeN2,Li2GeN2,90.333,128.34,50.8,0.26321,79.811,74.274,27.613,0.3449,85.072,39.207,101.96,0.30025,monoclinic,2.7095,3.662045185,H2
mp-976784,NiAu3,NiAu3,146.67,62.857,22,0.42857,146.67,55.076,19.158,0.43741,146.67,20.579,58.978,0.43298,cubic,0,16.50318545,H1a
mp-16321,SrCuP,SrCuP,67.444,115.34,47.467,0.21497,65.441,111.08,45.631,0.21711,66.443,46.549,113.21,0.21602,hexagonal,0,4.8095892,H4
mp-4744,Ca(NiAs)2,Ca(NiAs)2,83.111,107.98,42.067,0.28346,83.094,98.312,37.731,0.30281,83.103,39.899,103.18,0.29306,tetragonal,0,6.107943723,H4
mp-14600,CaAl2O4,CaAl2O4,79,113.88,45.2,0.25974,68.657,103.93,41.651,0.24769,73.828,43.425,108.92,0.25411,monoclinic,4.3887,2.901042281,H2
mp-7938,KNbS2,KNbS2,72.667,111.08,44.6,0.24524,72.645,108.12,43.183,0.25193,72.656,43.891,109.6,0.24858,hexagonal,0.8115,3.965989557,H1a
mp-21194,NdGeRu,NdGeRu,80.444,114.78,45.467,0.2622,76.991,96.723,37.472,0.29062,78.718,41.469,105.82,0.27594,tetragonal,0,8.211022193,H4
mp-1009014,LiCuO,LiCuO,110.33,96.429,35.6,0.35434,110.33,72.795,26.185,0.39004,110.33,30.892,84.766,0.37196,cubic,0,4.786651999,H1a
mp-1025526,LuAu3,LuAu3,112.33,88.675,32.4,0.36844,109.26,79.973,29.018,0.37801,110.8,30.709,84.335,0.37314,orthorhombic,0,16.2804498,H4
mp-977310,OsAu3,OsAu3,145.33,70.396,24.8,0.41927,145.33,48.747,16.878,0.4441,145.33,20.839,59.665,0.43158,cubic,0,18.9523665,H1a
mp-1658,Tl2O3,Tl2O3,108.67,86.423,31.6,0.36745,108.67,84.969,31.018,0.36968,108.67,31.309,85.697,0.36856,cubic,0.031,9.702867017,H5
mp-973977,HoSnO3,HoSnO3,101.67,101.84,38.2,0.33304,101.67,78.74,28.718,0.37092,101.67,33.459,90.454,0.35171,cubic,0,6.681846651,H1a
mp-7350,Li(YSi)2,Li(YSi)2,68.556,120.15,49.733,0.20791,67.078,103.59,41.683,0.24261,67.817,45.708,111.97,0.22482,tetragonal,0,3.726418125,H4
mp-331,ScAl,ScAl,78,139.82,58.2,0.20123,78,67.646,24.953,0.35546,78,41.577,105.91,0.27369,cubic,0,3.099620451,H1a
mp-19740,YInPt,YInPt,101.78,96.289,35.867,0.34232,100.37,85.129,31.329,0.35865,101.08,33.598,90.739,0.35038,hexagonal,0,9.950164149,H4
mp-20329,InAgO2,InAgO2,113.22,106.72,39.733,0.34291,105.03,62.867,22.449,0.40024,109.13,31.091,85.183,0.3699,hexagonal,0.2368,6.84386083,H1a
mp-977416,Er2AgIr,Er2AgIr,106.67,87.768,32.2,0.36286,106.67,85.994,31.485,0.36563,106.67,31.843,86.882,0.36425,cubic,0,12.42661415,H1a
mp-21038,Dy3Mn3Ga2Si,Dy3Mn3Ga2Si,80.222,114.44,45.333,0.26224,79.538,94.538,36.308,0.3019,79.88,40.821,104.64,0.28168,hexagonal,0,7.919410715,H4
mp-11431,CaGa3Ni2,CaGa3Ni2,87.111,105.57,40.667,0.29801,81.972,97.77,37.569,0.30121,84.541,39.118,101.67,0.29956,orthorhombic,0,6.107405166,H4
mp-19183,Li2NiO2,Li2NiO2,93.556,114.41,44.133,0.29618,82.668,84.058,31.588,0.33053,88.112,37.861,99.352,0.31207,orthorhombic,0,3.582157063,H4
mp-568961,Ba(FeAs)2,Ba(FeAs)2,79.444,111.14,43.867,0.26683,75.255,101.21,39.662,0.27586,77.35,41.764,106.18,0.27121,tetragonal,0,6.446281284,H4
mp-9371,ErF3,ErF3,90.222,133.24,53.133,0.25386,53.734,85.457,34.6,0.23494,71.978,43.867,109.38,0.24673,orthorhombic,7.8677,7.477902633,H2
mp-22660,InAgO2,InAgO2,112.78,106.99,39.867,0.34188,104.77,62.792,22.424,0.40011,108.77,31.145,85.295,0.36931,trigonal,0.2498,6.868134426,H2
mp-610,MnAs,MnAs,59.444,125.52,54.667,0.14807,54.669,109.21,46.789,0.16706,57.057,50.728,117.39,0.15709,hexagonal,0,6.766713167,H4
mp-8320,SmScSi,SmScSi,69.889,113.44,46.133,0.22948,69.314,107.87,43.475,0.24062,69.601,44.804,110.67,0.235,tetragonal,0,5.19335401,H4
mp-13474,LiErGe,LiErGe,60.778,118.21,50.267,0.17584,59.742,113.17,47.781,0.18427,60.26,49.024,115.7,0.18001,hexagonal,0,6.830115228,H4
mp-977143,LaDyRu2,LaDyRu2,103.33,95.799,35.6,0.34549,103.33,81.85,29.916,0.36798,103.33,32.758,88.882,0.35664,cubic,0,9.882649799,H1a
mp-11220,Sc2Al,Sc2Al,70.889,111.7,45.133,0.23739,70.402,108.18,43.484,0.2439,70.646,44.309,109.94,0.24063,hexagonal,0,3.024174766,H4
mp-12381,PrSnRh,PrSnRh,97.889,95.094,35.533,0.33809,97.663,90.103,33.465,0.34624,97.776,34.499,92.606,0.34215,hexagonal,0,8.74370714,H4
mp-510404,GdSe,GdSe,90.333,116.22,45.2,0.28558,90.333,77.903,28.72,0.35627,90.333,36.96,97.572,0.31998,cubic,0,7.763412875,H1a
mp-865341,Tm2InOs,Tm2InOs,108.33,88.884,32.6,0.36326,108.33,81.785,29.758,0.37418,108.33,31.179,85.349,0.36869,cubic,0,12.21507311,H1a
mp-569834,LiCu2Sn,LiCu2Sn,76.778,113.5,45.267,0.25363,71.334,102.28,40.553,0.26104,74.056,42.91,107.89,0.25718,hexagonal,0,6.857002567,H4
mp-697126,Ca4(H4Rh)3,Ca4(H4Rh)3,78.333,106.03,41.6,0.2744,78.333,104.46,40.877,0.27774,78.333,41.238,105.25,0.27607,cubic,0,4.108216897,H1a
mp-20729,LaIn3,LaIn3,179.33,40.935,14,0.46196,179.33,26.82,9.0909,0.47507,179.33,11.545,33.909,0.46849,cubic,0,7.283405182,H1a
mp-973123,ScPdO3,ScPdO3,136.67,119.7,44.2,0.35403,136.67,4.9496,1.6565,0.49396,136.67,22.928,65.142,0.42056,cubic,0,4.879050637,H1a
mp-996995,MnAgO2,MnAgO2,98.889,122.46,47.333,0.2936,73.452,77.658,29.332,0.32379,86.17,38.333,100.15,0.3063,monoclinic,1.0007,6.11957479,H4
mp-961664,VSnPd,VSnPd,120.33,94.222,34.4,0.3695,120.33,58.67,20.677,0.41874,120.33,27.538,76.76,0.39368,cubic,0,7.854548232,H1a
mp-2839,CeC2,CeC2,104.22,141.91,55.733,0.27307,98.368,31.414,10.856,0.44678,101.3,33.295,90.022,0.35188,tetragonal,0,6.075503511,H4
mp-9166,MgCN2,MgCN2,105.11,123.77,47.467,0.30375,87.453,61.737,22.33,0.38234,96.282,34.899,93.41,0.33831,trigonal,3.8116,2.385824736,H2
mp-558137,AlBPbO4,AlBPbO4,76,131.37,54.2,0.21191,57.587,92.401,37.483,0.23258,66.794,45.841,111.92,0.22073,orthorhombic,2.7567,6.029645836,H2
mp-33588,Ca2NF,Ca2NF,72.778,118.99,48.467,0.22751,60.855,104.73,43.165,0.21316,66.816,45.816,111.88,0.22093,tetragonal,1.7201,2.986220383,H1a
mp-761568,Rb2CoO3,Rb2CoO3,58.111,56.386,21.067,0.33828,201.54,81.457,28.429,0.43264,129.83,24.748,69.808,0.41038,orthorhombic,0.5079,4.450710954,H2
mp-11411,ScGa,ScGa,76.444,118.39,47.667,0.24188,75.328,94.011,36.382,0.292,75.886,42.024,106.43,0.26626,orthorhombic,0,4.705646546,H4
mp-36052,ScUS2,ScUS2,90.667,138.08,55.4,0.24618,90.555,50.612,17.988,0.40685,90.611,36.694,96.989,0.3216,tetragonal,0,7.568165657,H4
mp-559390,CaAl2O4,CaAl2O4,78.556,108.52,42.733,0.26976,72.619,104.61,41.513,0.25992,75.587,42.123,106.57,0.26501,hexagonal,4.1904,2.839015451,H1b
mp-3917,Cd2GeO4,Cd2GeO4,100.89,92.506,34.333,0.34718,98.522,88.944,32.954,0.34954,99.705,33.643,90.726,0.34834,orthorhombic,1.0923,5.945978616,H2
mp-755478,CdBiO3,CdBiO3,106.56,93.01,34.333,0.35452,96.568,85.817,31.74,0.35189,101.56,33.037,89.415,0.35327,trigonal,0.7926,8.052450181,H2
mp-864981,Dy2AgIr,Dy2AgIr,102.67,88.93,32.8,0.35563,102.67,88.368,32.571,0.35655,102.67,32.685,88.649,0.35609,cubic,0,11.92467,H1a
mp-13303,ErSnAu,ErSnAu,78.111,108.28,42.667,0.26895,73.472,104.2,41.23,0.26363,75.791,41.948,106.24,0.26637,hexagonal,0,11.32267808,H4
mp-976343,HoErPd2,HoErPd2,99.333,91.071,33.8,0.3472,99.333,90.731,33.66,0.34777,99.333,33.73,90.901,0.34748,cubic,0,10.70185662,H1a
mp-9158,LiCuO2,LiCuO2,95.778,126.17,49.267,0.28045,66.174,79.778,30.706,0.29907,80.976,39.986,103,0.28799,monoclinic,0.3752,4.35543287,H4
mp-2602,NdAs,NdAs,68.667,116.39,47.8,0.21749,68.667,104.35,41.848,0.24673,68.667,44.824,110.44,0.23194,cubic,0,6.584700681,H1a
mp-4846,MnSbRh,MnSbRh,111,84.074,30.6,0.37376,111,81.494,29.577,0.37764,111,30.089,82.786,0.3757,cubic,0,8.146911523,H1a
mp-865893,LiZr2Tc,LiZr2Tc,115.33,84.847,30.8,0.37739,115.33,74.529,26.765,0.3923,115.33,28.782,79.716,0.3848,cubic,0,6.557078186,H1a
mp-22384,DyInPt,DyInPt,103,94.801,35.2,0.3466,100.98,82.968,30.434,0.36307,101.99,32.817,88.915,0.3547,hexagonal,0,11.87564686,H4
mp-23729,NaBeH3,NaBeH3,62.667,123.3,52.6,0.17207,62.667,103.5,42.255,0.22473,62.667,47.428,113.62,0.19782,cubic,1.6472,1.556932438,H5
mp-977358,Ho2AgIr,Ho2AgIr,101.33,89.794,33.2,0.35231,101.33,88.891,32.83,0.3538,101.33,33.015,89.342,0.35306,cubic,0,12.17476036,H1a
mp-11249,LuAu,LuAu,95.333,94.978,35.6,0.33396,95.333,91.81,34.271,0.33949,95.333,34.935,93.397,0.33672,cubic,0,13.99621797,H1a
mp-504691,LiMnP,LiMnP,84.444,106.46,41.267,0.28988,84.377,94.613,36.026,0.31312,84.411,38.646,100.59,0.30139,tetragonal,0,3.679696876,H4
mp-22511,Ce2MgGe2,Ce2MgGe2,65.444,120.06,50.267,0.19424,63.519,104.93,42.839,0.22468,64.482,46.553,112.57,0.20904,tetragonal,0,6.195203558,H4
mp-867756,Sc2CuAu,Sc2CuAu,99.667,98.777,37,0.33482,99.667,81.873,30.032,0.36309,99.667,33.516,90.414,0.34881,cubic,0,7.78882108,H1a
mp-28017,Na8Ti5O14,Na8Ti5O14,74.556,112.25,44.933,0.24907,74.359,101.24,39.76,0.27309,74.457,42.347,106.79,0.26095,triclinic,3.507,3.284706097,H5
mp-12923,SrPIr,SrPIr,97.667,92.837,34.6,0.34158,97.667,90.68,33.704,0.34526,97.667,34.152,91.76,0.34341,cubic,0,7.936241482,H1a
mp-9569,Ca(ZnP)2,Ca(ZnP)2,67.333,113.2,46.4,0.21981,66.344,109.21,44.551,0.22565,66.838,45.475,111.21,0.2227,trigonal,0.929,3.980765279,H2
mp-11652,Yb3PbO,Yb3PbO,58,116.16,49.8,0.16622,58,115.58,49.481,0.16788,58,49.641,115.87,0.16705,cubic,0.6548,11.17633398,H5
mp-10606,Sm3TlC,Sm3TlC,61.667,113.96,47.8,0.19201,61.667,113.95,47.799,0.19202,61.667,47.799,113.95,0.19201,cubic,0,8.540946268,H1a
mp-4395,TbScGe,TbScGe,67.333,113.59,46.6,0.21883,66.387,108.63,44.256,0.22728,66.86,45.428,111.12,0.22301,tetragonal,0,6.506744711,H4
mp-20352,Ba3In2O6,Ba3In2O6,87.556,106.24,40.933,0.29776,86.977,90.691,34.192,0.32622,87.266,37.563,98.548,0.31179,tetragonal,0.8906,6.147281485,H1a
mp-631335,MgTaZn,MgTaZn,87,101.79,39,0.305,87,95.504,36.257,0.31704,87,37.629,98.662,0.31099,cubic,0,7.720098159,H1a
mp-971911,ZnN,ZnN,129.67,72.586,25.8,0.4067,123.63,69.788,24.819,0.40592,126.65,25.31,71.187,0.40632,hexagonal,0,5.434306539,H4
mp-865444,LiSc2Pt,LiSc2Pt,91,96.82,36.6,0.32267,91,94.845,35.756,0.32629,91,36.178,95.834,0.32448,cubic,0,6.700872128,H1a
mp-10876,Ca3Al7Cu2,Ca3Al7Cu2,65.667,112.27,46.2,0.21505,65.346,110.94,45.577,0.21705,65.507,45.889,111.61,0.21605,trigonal,0,3.124385488,H2
mp-22056,YIn2Ni,YIn2Ni,78.778,111,43.867,0.26517,78.302,96.53,37.284,0.29453,78.54,40.575,103.84,0.27964,orthorhombic,0,7.452620253,H4
mp-2434,SrTl,SrTl,106,89.692,33,0.35897,106,81.463,29.69,0.37191,106,31.345,85.597,0.36541,cubic,0,6.949817087,H1a
mp-14208,LiYSi,LiYSi,62.889,116.57,48.933,0.19108,61.258,110.04,45.827,0.20061,62.073,47.38,113.31,0.19576,hexagonal,0,3.416483679,H4
mp-7801,CaGeN2,CaGeN2,118.89,148.18,57.333,0.29227,95.051,13.738,4.6539,0.47591,106.97,30.994,84.792,0.36789,tetragonal,3.0019,4.310539555,H4
mp-9127,Ba(SbO3)2,Ba(SbO3)2,84.222,114.45,44.933,0.27352,65.654,97.21,38.784,0.25323,74.938,41.859,105.86,0.26455,trigonal,2.8755,5.357451639,H2
mp-864935,MgAu3,MgAu3,112,82.623,30,0.37705,111.99,79.794,28.885,0.38125,112,29.442,81.211,0.37915,hexagonal,0,14.27243512,H4
mp-865273,TmUTc2,TmUTc2,136.67,86.463,31,0.39456,136.67,39.811,13.714,0.45145,136.67,22.357,63.603,0.42244,cubic,0,12.95791246,H1a
mp-554201,MoF3,MoF3,91.667,136.25,54.4,0.25228,91.667,48.757,17.273,0.41135,91.667,35.837,95.115,0.32706,cubic,3.3002,3.428998033,H2
mp-20203,MnCuP,MnCuP,129.78,87.854,31.667,0.38717,127.02,50.659,17.669,0.43353,128.4,24.668,69.55,0.40972,orthorhombic,0,6.589161197,H4
mp-1570,YFe2,YFe2,91.333,97.328,36.8,0.32239,91.333,93.317,35.089,0.32971,91.333,35.945,95.328,0.32604,cubic,0,6.872989898,H1a
mp-7121,Dy(AlSi)2,Dy(AlSi)2,78,111.53,44.2,0.26168,77.765,96.298,37.221,0.29361,77.883,40.71,104.01,0.27742,trigonal,0,4.487377519,H2
mp-1024987,HoCu4Ag,HoCu4Ag,110.67,82.036,29.8,0.37645,110.67,82.031,29.798,0.37646,110.67,29.799,82.034,0.37645,cubic,0,9.623360414,H1a
mp-7523,Th2TeN2,Th2TeN2,87.556,118.16,46.333,0.27508,82,80.178,29.983,0.33704,84.778,38.158,99.541,0.30431,tetragonal,1.6708,9.25770217,H1a
mp-3015,HoInCu,HoInCu,69.111,118.64,48.867,0.2139,63.26,103.06,41.948,0.22847,66.186,45.407,110.87,0.22082,hexagonal,0,9.046121228,H4
mp-571554,PrAlSi2,PrAlSi2,77.111,109.77,43.467,0.26274,76.828,99.006,38.517,0.28522,76.97,40.992,104.44,0.27386,trigonal,0,4.381815651,H2
mp-863716,Pm2IrPd,Pm2IrPd,106.67,84.786,31,0.36752,106.67,84.668,30.952,0.36771,106.67,30.976,84.727,0.36761,cubic,0,10.87833687,H1a
mp-1294,YCo2,YCo2,114.67,80.746,29.2,0.38264,114.67,77.448,27.91,0.38743,114.67,28.555,79.1,0.38503,cubic,0,7.581892784,H1a
mp-569446,NiPb,NiPb,86.667,100.83,38.6,0.3061,86.231,95.837,36.446,0.31477,86.449,37.523,98.341,0.31041,hexagonal,0,11.38837532,H4
mp-864972,Mg2PdAu,Mg2PdAu,88,106.02,40.8,0.29921,88,88.374,33.158,0.33262,88,36.979,97.307,0.31571,cubic,0,8.547312757,H1a
mp-1024994,HoCu4Au,HoCu4Au,101.33,88.328,32.6,0.35472,101.33,88.288,32.584,0.35479,101.33,32.592,88.308,0.35476,cubic,0,11.24774186,H1a
mp-973834,PdAu3,PdAu3,142.33,63.85,22.4,0.42523,142.33,54.514,18.979,0.43617,142.33,20.69,59.2,0.43068,cubic,0,16.60902756,H1a