Material_ID,Formula,pretty_formula,KV ,EV ,GV ,PV ,KR ,ER ,GR ,PR ,bulk,shear,young,poisson,csyst,gap,density,y_cla
mp-1025200,Eu2TiO4,Eu2TiO4,125.22,179.85,71.333,0.26063,120.01,174.43,69.34,0.25777,122.62,70.337,177.14,0.25923,tetragonal,0,7.235617103,H4
mp-1822,TiAs,TiAs,119.56,189.63,76.733,0.23565,118.79,168.48,66.667,0.26362,119.17,71.7,179.17,0.24943,hexagonal,0,5.836287539,H4
mp-1025329,TlSiPt5,TlSiPt5,169.89,159.44,59.333,0.34359,169.76,132.89,48.516,0.36953,169.82,53.925,146.29,0.35643,tetragonal,0,17.17677821,H4
mp-971706,ZnBiO3,ZnBiO3,153.33,159.7,60.2,0.32641,153.33,155.09,58.241,0.33143,153.33,59.22,157.4,0.32892,cubic,0,8.945928089,H1a
mp-5577,Ce(GeRh)2,Ce(GeRh)2,132.78,174.84,68.267,0.28054,132.69,166.72,64.59,0.29059,132.73,66.428,170.79,0.28555,tetragonal,0,8.906355206,H4
mp-867769,ScZnRh2,ScZnRh2,148.33,164.64,62.6,0.31501,148.33,156.69,59.174,0.32395,148.33,60.887,160.68,0.31946,cubic,0,8.579742973,H1a
mp-16043,Mg(As2Rh3)2,Mg(As2Rh3)2,173.22,145.6,53.533,0.35991,171.72,143.04,52.541,0.36118,172.47,53.037,144.32,0.36054,hexagonal,0,9.089736449,H4
mp-7079,CaZrSi2O7,CaZrSi2O7,138.44,181.17,70.667,0.28189,134.43,155.32,59.4,0.30743,136.44,65.033,168.35,0.29435,monoclinic,4.5837,3.518353883,H2
mp-3315,CaPd3O4,CaPd3O4,165.67,151.47,56.2,0.34761,165.67,146.4,54.112,0.35272,165.67,55.156,148.94,0.35016,cubic,0.0212,7.062805453,H5
mp-953,NbZn3,NbZn3,119,184.71,74.4,0.24131,119,173.3,68.919,0.25728,119,71.659,179.04,0.24924,cubic,0,7.80232109,H1a
mp-4908,Y(CoGe)2,Y(CoGe)2,128.89,175.51,68.933,0.27305,128.89,170.51,66.633,0.27951,128.89,67.783,173.02,0.27627,tetragonal,0,7.332318611,H4
mp-21286,MnCoGe,MnCoGe,147,166.75,63.6,0.31094,141.1,159.91,60.981,0.31112,144.05,62.291,163.33,0.31103,orthorhombic,0,7.950961017,H4
mp-4230,Sc3TlC,Sc3TlC,97,191.19,81.6,0.1715,97,190.96,81.478,0.17188,97,81.539,191.08,0.17169,cubic,0.1194,6.159752563,H5
mp-1075,SmNi5,SmNi5,125.22,177.3,70.133,0.26402,124.57,173.54,68.438,0.26783,124.9,69.286,175.42,0.26592,hexagonal,0,8.896440943,H4
mp-768358,ScInO3,ScInO3,154,162.12,61.2,0.32454,151.08,153.18,57.543,0.33102,152.54,59.371,157.66,0.32774,hexagonal,2.1982,5.201301266,H1b
mvc-15474,YSnO3,YSnO3,197.33,144.42,52.4,0.37803,197.33,108.65,38.576,0.40824,197.33,45.488,126.73,0.39297,cubic,0,5.973757291,H1a
mp-24149,LiCe2HO3,LiCe2HO3,111.33,187.72,77,0.21898,109.32,180.15,73.508,0.22536,110.33,75.254,183.94,0.22213,orthorhombic,0,6.77665902,H4
mp-1025053,ThSiTe,ThSiTe,182.33,57.325,19.8,0.4476,212.72,191.67,70.997,0.34983,197.53,45.398,126.5,0.39326,tetragonal,0,8.052363406,H4
mp-27360,ReBiO4,ReBiO4,144.78,183.22,71.067,0.28908,124.43,155.25,60.077,0.29205,134.6,65.572,169.23,0.29045,orthorhombic,0,9.186249841,H4
mp-3210,Ca(CoP)2,Ca(CoP)2,104.78,195.61,82.267,0.18886,96.901,182.29,76.823,0.18646,100.84,79.545,188.95,0.1877,tetragonal,0,5.136943636,H4
mp-18927,Zr3NiO,Zr3NiO,147.22,163.87,62.333,0.31448,146.47,158.54,60.073,0.31959,146.84,61.203,161.21,0.31703,orthorhombic,0,7.15196994,H4
mp-1025325,NpGa5Co,NpGa5Co,102.22,190.22,79.933,0.18986,102.22,186.01,77.718,0.19671,102.22,78.826,188.12,0.19328,tetragonal,0,8.990554609,H4
mp-567220,Hf2SbP,Hf2SbP,124.33,187.75,75.2,0.24833,122.93,163.65,64.022,0.27812,123.63,69.611,175.83,0.26296,hexagonal,0,10.20499022,H4
mp-697068,SiPd2,SiPd2,181,155.74,57.4,0.3566,178.87,121.01,43.616,0.38725,179.94,50.508,138.56,0.37166,hexagonal,0,9.203184076,H4
mp-862371,Sc2RuPt,Sc2RuPt,147.67,160.85,61,0.31845,147.67,159.91,60.593,0.31952,147.67,60.797,160.38,0.31898,cubic,0,9.348354901,H1a
mp-568630,LuRu2,LuRu2,186.44,135.33,49.067,0.37903,185.73,132.91,48.129,0.38074,186.09,48.598,134.12,0.37988,hexagonal,0,11.98616983,H4
mp-1529,LuIr,LuIr,139,166.9,64.2,0.29988,139,165.05,63.377,0.3021,139,63.788,165.98,0.30099,cubic,0,16.13568269,H1a
mp-4006,ErPO4,ErPO4,141.22,194.9,76.733,0.26998,129.77,140.59,53.277,0.31943,135.5,65.005,168.13,0.29319,tetragonal,5.9256,6.057410245,H4
mp-12598,PrPt3,PrPt3,154.67,158.92,59.8,0.32875,154.67,152.17,56.947,0.33603,154.67,58.373,155.55,0.33238,cubic,0,16.02453612,H1a
mp-31460,NbCoSb,NbCoSb,156,158.13,59.4,0.33106,156,151.02,56.406,0.33866,156,57.903,154.58,0.33485,cubic,0,8.477405466,H1a
mp-1214,VS,VS,119.22,180.5,72.333,0.24767,116.55,177.07,71.009,0.2468,117.89,71.671,178.78,0.24724,hexagonal,0,4.952399629,H4
mp-5157,Ca(PRu)2,Ca(PRu)2,114.56,203.54,84.533,0.20388,88.726,171.97,73.057,0.17696,101.64,78.795,187.84,0.19198,tetragonal,0,6.159745735,H4
mp-977537,ZrCdRh2,ZrCdRh2,154.33,165.43,62.6,0.32135,154.33,145.5,54.174,0.34287,154.33,58.387,155.55,0.33202,cubic,0,9.863861815,H1a
mp-867110,Sc2CoOs,Sc2CoOs,140.33,164.85,63.2,0.30421,140.33,164.6,63.087,0.30452,140.33,63.144,164.72,0.30437,cubic,0,8.707545876,H1a
mp-15053,Y(PdO2)2,Y(PdO2)2,155.89,164.54,62.133,0.32408,153.1,146.12,54.485,0.34093,154.49,58.309,155.38,0.33238,tetragonal,0,7.080351097,H4
mp-4007,Nd(SiNi)2,Nd(SiNi)2,121.22,180.16,71.933,0.2523,121.15,173.09,68.583,0.26189,121.19,70.258,176.64,0.25707,tetragonal,0,6.695876813,H4
mp-1584,YbIr2,YbIr2,165.67,154.37,57.4,0.3447,165.67,141.02,51.917,0.35813,165.67,54.658,147.73,0.35138,cubic,0,17.29861658,H1a
mp-19376,TiMnO3,TiMnO3,149.56,171.09,65.333,0.30934,140.78,151.8,57.487,0.32029,145.17,61.41,161.46,0.31463,trigonal,1.8012,4.492853495,H2
mp-624492,Li(Fe3Ge2)2,Li(Fe3Ge2)2,135.22,172.8,67.133,0.28701,135.02,163.03,62.762,0.29876,135.12,64.948,167.94,0.29286,trigonal,0,7.323537024,H2
mp-30682,ZrGa,ZrGa,114.33,189.85,77.6,0.22325,113.82,171.46,68.643,0.24893,114.08,73.121,180.75,0.23593,tetragonal,0,6.856706576,H4
mp-4611,Th(SiPt)2,Th(SiPt)2,159.78,162.5,61.067,0.3305,156.54,142.82,52.977,0.34794,158.16,57.022,152.71,0.33907,tetragonal,0,12.41844685,H4
mp-980193,Ti2H4Pd,Ti2H4Pd,137.33,168.88,65.2,0.29505,137.33,163.95,63.006,0.30103,137.33,64.103,166.42,0.29803,tetragonal,0,5.997988289,H4
mp-864654,Zn2NiRh,Zn2NiRh,156.33,176.79,67.4,0.31152,156.33,130.09,47.782,0.36131,156.33,57.591,153.88,0.33595,cubic,0,9.34195599,H1a
mp-961710,VSiPt,VSiPt,195.33,141.26,51.2,0.37947,195.33,112.24,39.965,0.40423,195.33,45.582,126.88,0.39174,cubic,0,9.224063359,H1a
mp-972659,SmCoSi3,SmCoSi3,115.33,180.03,72.6,0.23985,115.17,179.81,72.514,0.23979,115.25,72.557,179.92,0.23982,tetragonal,0,6.082723902,H4
mp-13164,Ti2Pd,Ti2Pd,142.33,172.84,66.6,0.29761,141.28,153.75,58.298,0.31862,141.8,62.449,163.37,0.30799,tetragonal,0,6.905202241,H4
mp-569120,NdPt3,NdPt3,156,159.55,60,0.32955,156,148.28,55.262,0.34158,156,57.631,153.94,0.33554,cubic,0,16.25548653,H1a
mp-4126,KUO3,KUO3,130.33,180.27,71,0.26948,130.33,160.87,62.146,0.29428,130.33,66.573,170.66,0.28176,cubic,0.4966,6.643502242,H5
mp-7917,HfGeSe,HfGeSe,112.22,184.28,75.133,0.22632,112.06,178.91,72.498,0.2339,112.14,73.815,181.6,0.2301,tetragonal,0,9.575608649,H4
mp-684679,Sb6O13,Sb6O13,119.22,178.42,71.333,0.25058,118.68,176.72,70.585,0.25183,118.95,70.959,177.57,0.25121,monoclinic,1.3498,5.473931811,H4
mp-30180,Al4Mo,Al4Mo,111.78,184.81,75.467,0.22444,110.71,179.22,72.843,0.23018,111.24,74.155,182.02,0.22729,monoclinic,0,4.181840378,H4
mp-983564,EuAsO3,EuAsO3,115,181.16,73.2,0.23745,115,178.49,71.895,0.24132,115,72.548,179.83,0.23938,cubic,0,7.140400683,H1a
mp-10899,AlVNi2,AlVNi2,177.33,190.72,72.2,0.32075,177.33,83.667,29.432,0.42137,177.33,50.816,139.16,0.36921,cubic,0,6.672940104,H1a
mp-8484,ZnO2,ZnO2,143.33,162.56,62,0.31098,143.33,161.64,61.6,0.31204,143.33,61.8,162.1,0.31151,cubic,2.1691,5.310802144,H2
mp-9225,ScSiPt,ScSiPt,152.33,165.17,62.6,0.31928,146.18,151.08,56.892,0.32775,149.26,59.746,158.14,0.32342,orthorhombic,0,8.817945284,H4
mp-4903,Tm(CuSi)2,Tm(CuSi)2,115.44,181.42,73.267,0.23808,114.98,177.67,71.499,0.24246,115.21,72.383,179.55,0.24026,tetragonal,0,7.572496344,H4
mp-568624,Tb2B2C3,Tb2B2C3,155.78,234.92,94.067,0.24866,146.25,68.877,24.227,0.4215,151.01,59.147,156.95,0.32678,orthorhombic,0,7.468048128,H4
mp-5346,Lu(CuSi)2,Lu(CuSi)2,118.11,180.49,72.467,0.24531,116.72,175.77,70.365,0.24901,117.41,71.416,178.13,0.24715,tetragonal,0,7.774834139,H4
mp-977152,NpTiO3,NpTiO3,154.11,162.29,61.267,0.32448,154.11,147.14,54.869,0.34087,154.11,58.068,154.77,0.33263,cubic,0,9.187812747,H1a
mp-1016852,BaMnO3,BaMnO3,110.67,184.34,75.4,0.22239,110.67,179.52,72.996,0.22964,110.67,74.198,181.93,0.226,cubic,0,6.080659115,H1a
mp-9527,NdMnSi2,NdMnSi2,110.44,187.18,76.867,0.21754,109.86,176.9,71.817,0.23162,110.15,74.342,182.07,0.22452,orthorhombic,0,5.93521315,H4
mp-1762,ErRh2,ErRh2,143.67,168.54,64.6,0.30448,143.67,154.17,58.348,0.32115,143.67,61.474,161.4,0.31276,cubic,0,11.60998586,H1a
mp-862820,PaSi3,PaSi3,124,174.61,69,0.26531,124,172.86,68.182,0.26766,124,68.591,173.74,0.26648,cubic,0,7.522067957,H1a
mp-631523,TcNiW,TcNiW,250.67,85.992,29.8,0.44282,250.67,85.787,29.726,0.44296,250.67,29.763,85.89,0.44289,cubic,0,11.38225554,H1a
mp-16293,KSbO3,KSbO3,112.67,183.74,74.8,0.2282,112.67,177.15,71.55,0.23794,112.67,73.175,180.46,0.23305,cubic,1.3601,4.621424829,H5
mp-19308,Li2NiO2,Li2NiO2,115.44,184.68,74.867,0.23338,112.52,174.69,70.367,0.24125,113.98,72.617,179.69,0.23725,trigonal,0,4.029936766,H2
mp-974417,Re3Sb,Re3Sb,199.67,123.49,44.2,0.39692,199.67,121.23,43.333,0.39881,199.67,43.767,122.36,0.39786,cubic,0,17.29521471,H1a
mp-640708,FeGe2,FeGe2,125.89,176.17,69.533,0.26677,123.9,169.45,66.604,0.27207,124.9,68.069,172.81,0.26939,orthorhombic,0,7.594487672,H4
mp-977123,NaTiO3,NaTiO3,148.33,186.36,72.2,0.2906,148.33,127.76,47.092,0.35646,148.33,59.646,157.79,0.32271,cubic,0,3.321188015,H1a
mp-8182,As3Rh,As3Rh,116.33,178.23,71.6,0.24465,116.33,177.69,71.335,0.24543,116.33,71.468,177.96,0.24504,cubic,0,6.882908561,H1a
mp-19147,NiCO3,NiCO3,129.56,181.67,71.733,0.26629,120.1,163.81,64.359,0.27266,124.83,68.046,172.75,0.26935,trigonal,3.3914,4.233881846,H2
mp-15986,Hf(CuP)2,Hf(CuP)2,133.11,172.71,67.267,0.28375,133.01,162.38,62.62,0.29654,133.06,64.943,167.57,0.29011,trigonal,0,7.94181057,H2
mp-5670,LiTi2O4,LiTi2O4,132.33,174.17,68,0.28065,132.33,161.82,62.421,0.2962,132.33,65.211,168.03,0.28837,cubic,0,3.649565338,H1a
mp-1029469,ZnSnN2,ZnSnN2,132.89,169.73,65.933,0.28713,132.82,165.63,64.09,0.29216,132.85,65.012,167.68,0.28964,orthorhombic,0.123,6.313160928,H2
mp-758741,Li(FeP)2,Li(FeP)2,134.67,180.29,70.6,0.27686,132.65,153.72,58.812,0.30686,133.66,64.706,167.15,0.29158,tetragonal,0,4.684269843,H4
mp-18746,BaEr2CoO5,BaEr2CoO5,126.78,181.76,72.067,0.26105,126.33,161.12,62.575,0.28743,126.55,67.321,171.55,0.27408,orthorhombic,1.4018,8.093081219,H2
mp-8074,TaSnO3,TaSnO3,224.67,151.01,54.4,0.38797,224.67,54.671,18.73,0.45944,224.67,36.565,104.05,0.42281,cubic,0,8.546452733,H1a
mp-510625,CrCuO2,CrCuO2,164.22,176.32,66.733,0.32106,145.33,129.62,47.958,0.35135,154.78,57.346,153.13,0.33511,trigonal,1.6569,5.295622232,H2
mp-13583,Sc2Si2Ru,Sc2Si2Ru,122.78,176.61,70.067,0.26026,122.1,171.27,67.63,0.26622,122.44,68.848,173.94,0.26323,monoclinic,0,4.726749393,H4
mp-1022723,Ce2Cu(NO)2,Ce2Cu(NO)2,149.78,175.52,67.267,0.30468,142.84,141.52,53.008,0.33487,146.31,60.137,158.67,0.31925,tetragonal,0,7.210075762,H4
mp-4280,GaCuO2,GaCuO2,158.33,179.37,68.4,0.31119,144.01,130.79,48.489,0.34864,151.17,58.444,155.32,0.32876,trigonal,0.8312,6.044512271,H2
mp-16740,TiGePd,TiGePd,148.56,164.05,62.333,0.31594,148.02,150.28,56.462,0.33079,148.29,59.398,157.2,0.32331,hexagonal,0,7.899613744,H4
mp-862863,Pa3Te,Pa3Te,108.67,197.71,82.6,0.19677,108.67,165.19,66.255,0.24664,108.67,74.428,181.78,0.22119,cubic,0,14.22101372,H1a
mvc-6281,Zn(CuO2)2,Zn(CuO2)2,108,113.89,43,0.32425,98.324,241.65,110.81,0.090393,103.16,76.903,184.79,0.20145,orthorhombic,0.1093,5.932703751,H2
mp-19359,NaFeO2,NaFeO2,116.11,182.83,73.867,0.23757,112.81,174.02,70.005,0.2429,114.46,71.936,178.43,0.24019,trigonal,1.9668,4.208426656,H2
mp-1025301,GaPPd5,GaPPd5,140.78,168.24,64.667,0.30082,140.6,155.98,59.305,0.3151,140.69,61.986,162.14,0.30792,tetragonal,0,9.868095502,H4
mp-3144,HoNbO4,HoNbO4,153.44,164.08,62.067,0.32178,144.88,148.96,56.057,0.32864,149.16,59.062,156.53,0.3251,monoclinic,3.5028,7.078433511,H2
mp-771359,Cu2O3,Cu2O3,160.33,149.03,55.4,0.34508,160.33,148.91,55.348,0.34521,160.33,55.374,148.97,0.34514,cubic,0,5.709041875,H1a
mp-11019,GaCuO2,GaCuO2,158,179.32,68.4,0.31084,142.98,131.38,48.771,0.34686,150.49,58.585,155.57,0.32771,hexagonal,0.799,6.043912089,H1a
mp-4163,Ca3Ti2O7,Ca3Ti2O7,132.56,172.75,67.333,0.2828,127.23,165,64.259,0.28386,129.89,65.796,168.87,0.28332,orthorhombic,2.5472,3.69754009,H2
mp-2917,Dy(CuSi)2,Dy(CuSi)2,105.44,186.68,77.467,0.20493,103.96,180.82,74.711,0.21011,104.7,76.089,183.75,0.20749,tetragonal,0,7.282187595,H4
mp-5326,Yb(CoSi)2,Yb(CoSi)2,94.222,191.28,82.333,0.16164,94.195,186.77,79.847,0.16954,94.209,81.09,189.03,0.16558,tetragonal,0,7.772953925,H4
mp-865884,LuInRh2,LuInRh2,147,159.84,60.6,0.31878,147,155.47,58.723,0.32373,147,59.662,157.66,0.32125,cubic,0,11.57737537,H1a
mp-571041,DyB2Rh2C,DyB2Rh2C,205.11,147.58,53.467,0.38008,204.82,86.241,30.158,0.42983,204.97,41.812,117.45,0.4045,tetragonal,0,8.947638587,H4
mp-505562,CrCuO2,CrCuO2,163.22,175.72,66.533,0.32057,144.71,129.86,48.082,0.35043,153.97,57.308,152.95,0.33444,hexagonal,1.8698,5.308605346,H1a
mp-2767,TiGa,TiGa,114.67,186.34,75.8,0.22916,114.56,169.33,67.536,0.25365,114.61,71.668,177.92,0.24128,tetragonal,0,6.197682761,H4
mp-4732,UGa5Co,UGa5Co,107.11,183.34,75.467,0.21472,106.66,181.3,74.504,0.21671,106.89,74.985,182.32,0.21571,tetragonal,0,8.886912685,H4
mp-1003317,Mn3HO6,Mn3HO6,136.67,178.06,69.4,0.28285,127.29,156.26,60.315,0.29539,131.98,64.857,167.19,0.28887,monoclinic,0,4.428744114,H4
mp-9771,UTi2O6,UTi2O6,153.89,163.36,61.733,0.32308,148.83,145.64,54.468,0.33691,151.36,58.101,154.53,0.32984,monoclinic,0,6.277827023,H4
mp-570904,GaNi2,GaNi2,164.33,163.8,61.4,0.33387,163.51,127.69,46.609,0.36984,163.92,54.004,145.98,0.35157,hexagonal,0,8.723197649,H4
mp-2271,NaPt2,NaPt2,123.33,176.17,69.8,0.26194,123.33,168.66,66.295,0.27207,123.33,68.048,172.43,0.26699,cubic,0,12.55169032,H1a
mp-971738,ZnCuNi2,ZnCuNi2,181.67,197.32,74.8,0.31897,181.67,63.939,22.18,0.44134,181.67,48.49,133.59,0.37744,cubic,0,8.79768427,H1a
mp-997031,MgCuO2,MgCuO2,139.11,179.54,69.867,0.28489,127.58,152.42,58.583,0.30088,133.35,64.225,166.02,0.29249,orthorhombic,0,5.118818602,H4
mp-7644,LuAsO4,LuAsO4,140.33,182.26,71,0.28354,132.42,145.53,55.26,0.31682,136.37,63.13,164.07,0.29948,tetragonal,3.5642,6.750463087,H4
mp-639874,Ta2Al,Ta2Al,162.22,156.27,58.333,0.33945,161.99,137.49,50.603,0.35854,162.11,54.468,146.95,0.34892,tetragonal,0,12.11501316,H4
mp-21879,Ba2CePtO6,Ba2CePtO6,138,168.09,64.8,0.29699,138,157.79,60.249,0.30944,138,62.525,162.96,0.30319,cubic,1.5239,7.597965773,H5
mp-974584,ReAu3,ReAu3,196,134.67,48.6,0.38549,194.63,112.68,40.142,0.40351,195.32,44.371,123.74,0.39441,tetragonal,0,18.82276928,H4
mp-1018085,CoSnRh2,CoSnRh2,161.44,173.94,65.867,0.32043,146.44,130.51,48.285,0.35147,153.94,57.076,152.39,0.33501,tetragonal,0,10.6512858,H4
mp-7027,InBO3,InBO3,146.67,173.08,66.4,0.30332,130.64,151.84,58.117,0.30629,138.65,62.259,162.46,0.30471,trigonal,2.7243,5.294858542,H2
mp-4305,Er(CuSi)2,Er(CuSi)2,108.56,183.54,75.333,0.2182,107.68,178.58,72.975,0.22359,108.12,74.154,181.07,0.22088,tetragonal,0,7.490038753,H4
mp-865165,HfScCo2,HfScCo2,130,169.34,66,0.28289,130,166.32,64.629,0.28676,130,65.314,167.84,0.28483,cubic,0,9.108180487,H1a
mp-8136,ThSO,ThSO,135.89,166.69,64.333,0.29555,134.83,162.15,62.387,0.29956,135.36,63.36,164.42,0.29754,tetragonal,1.1145,8.652385532,H1a
mp-3469,ZrNi2Sb,ZrNi2Sb,147,159.37,60.4,0.31931,143.37,156.66,59.436,0.31788,145.18,59.918,158.02,0.3186,hexagonal,0,8.502891844,H4
mp-4634,LaNi4B,LaNi4B,133.44,166.58,64.467,0.29195,133.21,164.79,63.683,0.29382,133.33,64.075,165.68,0.29289,hexagonal,0,8.118178727,H4
mp-30493,ZnCdPt2,ZnCdPt2,154.89,155.48,58.333,0.3327,154.87,147.48,54.978,0.34129,154.88,56.656,151.49,0.33698,tetragonal,0,14.62977188,H4
mp-2931,Li2TiO3,Li2TiO3,112.67,194.85,80.4,0.21176,108.22,163.88,65.68,0.2476,110.44,73.04,179.54,0.22906,monoclinic,3.0688,3.336254064,H2
mp-22701,ScFeSi,ScFeSi,140.33,169.82,65.4,0.29831,138.57,153.48,58.339,0.3154,139.45,61.869,161.7,0.30675,orthorhombic,0,4.848691618,H4
mp-9954,HfAs,HfAs,128.22,183.93,72.933,0.26093,127.25,153.79,59.215,0.29857,127.74,66.074,169.07,0.2794,hexagonal,0,10.50738514,H4
mp-12100,Lu(SiNi)2,Lu(SiNi)2,122.22,175.77,69.733,0.26031,120.59,170,67.193,0.26504,121.41,68.463,172.89,0.26265,tetragonal,0,7.961147907,H4
mp-29135,Zr6CoAs2,Zr6CoAs2,124.67,172.19,67.8,0.26981,124.57,169.47,66.549,0.27326,124.62,67.174,170.83,0.27153,hexagonal,0,7.117220751,H4
mp-31081,Sc(MnAl2)4,Sc(MnAl2)4,103,187.6,78.4,0.19644,103,179.08,73.985,0.21022,103,76.192,183.36,0.20329,tetragonal,0,4.115221122,H4
mp-862362,Sc2TcPt,Sc2TcPt,141,160.39,61.2,0.31041,141,160.31,61.165,0.3105,141,61.183,160.35,0.31046,cubic,0,9.240595029,H1a
mp-754759,Y2O3,Y2O3,141.89,164.94,63.133,0.30626,133.95,159.73,61.376,0.30125,137.92,62.255,162.34,0.30382,trigonal,4.4555,5.009462712,H2
mp-761574,CoSnO3,CoSnO3,155.22,159.77,60.133,0.32845,149.48,145.84,54.524,0.33739,152.35,57.329,152.82,0.33282,trigonal,0,6.344731786,H2
mp-20181,Ce2C3,Ce2C3,116.33,175.75,70.4,0.24821,116.33,175.66,70.359,0.24833,116.33,70.379,175.71,0.24827,cubic,0,7.074733812,H1a
mp-867881,ScTlRh2,ScTlRh2,142.33,162.42,62,0.30982,142.33,156.36,59.368,0.3169,142.33,60.684,159.4,0.31335,cubic,0,10.90765623,H1a
mp-5409,Y4Al2O9,Y4Al2O9,132.56,166.57,64.533,0.29057,132.04,164.96,63.851,0.29177,132.3,64.192,165.77,0.29117,monoclinic,4.3268,4.383509893,H2
mp-19754,TmCoC,TmCoC,145.11,181.5,70.267,0.29153,138.96,136.72,51.168,0.33602,142.04,60.717,159.43,0.31292,tetragonal,0,9.172724232,H4
mp-1018165,PtC,PtC,235.33,4.1917,1.4,0.49703,235.33,176.52,64.189,0.37499,235.33,32.795,94.017,0.43342,cubic,0,15.30738987,H1a
mp-2116,ZrMn2,ZrMn2,179.67,134.75,49,0.375,179.67,132.91,48.272,0.3767,179.67,48.636,133.83,0.37585,cubic,0,7.670876059,H1a
mp-867148,LiHfRh2,LiHfRh2,151.67,152.91,57.4,0.33197,151.67,152.89,57.391,0.33199,151.67,57.395,152.9,0.33198,cubic,0,10.67610986,H1a
mp-20007,MnNiGe,MnNiGe,145.78,166.73,63.667,0.30938,142.43,148.99,56.193,0.32566,144.1,59.93,157.9,0.31738,orthorhombic,0,7.865308271,H4
mp-850,ScNi2,ScNi2,143.33,163.93,62.6,0.30938,143.33,152.81,57.782,0.32231,143.33,60.191,158.4,0.31581,cubic,0,6.624090473,H1a
mp-389,SiPd,SiPd,149.67,171.26,65.4,0.30929,147.95,137.63,51.165,0.34496,148.81,58.282,154.66,0.32678,orthorhombic,0,7.403959168,H4
mp-753669,Hf(MnSn)6,Hf(MnSn)6,113.11,181.18,73.467,0.23304,113.09,173,69.473,0.24506,113.1,71.47,177.11,0.23902,hexagonal,0,8.947031287,H4
mp-1009548,PdN,PdN,188,132.71,48,0.38235,188,122.45,44,0.39145,188,46,127.59,0.38689,cubic,0,9.122719959,H1a
mp-21372,CePRuO,CePRuO,131.11,184.01,72.667,0.26609,115.58,157.76,61.989,0.27252,123.35,67.328,170.89,0.26909,tetragonal,0,7.381424785,H4
mp-1029334,Zn2SbN3,Zn2SbN3,131.56,167.72,65.133,0.28752,131.47,163.8,63.375,0.29235,131.51,64.254,165.77,0.28993,orthorhombic,0.1901,6.08014747,H2
mp-19295,LuVO4,LuVO4,153.11,160.3,60.467,0.32551,150.71,144.49,53.906,0.34021,151.91,57.186,152.43,0.33276,tetragonal,2.6237,6.927360142,H4
mp-560927,Y4Al2O9,Y4Al2O9,122.33,172.11,68,0.26552,122.03,171,67.51,0.26646,122.18,67.755,171.55,0.26599,monoclinic,4.3605,4.410148018,H2
mp-1648,Al12Re,Al12Re,96,186.35,79.2,0.17647,96,186.24,79.138,0.17667,96,79.169,186.3,0.17657,cubic,0,3.956298541,H1a
mp-21076,EuRh3C,EuRh3C,149.67,155.5,58.6,0.32683,149.67,152.24,57.212,0.33047,149.67,57.906,153.87,0.32865,cubic,0,10.42184358,H1a
mp-999060,Ti2CoSi,Ti2CoSi,140,160.25,61.2,0.30923,140,160.07,61.119,0.30945,140,61.16,160.16,0.30934,cubic,0,5.538625733,H1a
mp-753920,Tm2SeO2,Tm2SeO2,126,170.3,66.8,0.27473,125.97,167.81,65.653,0.27798,125.98,66.226,169.06,0.27635,trigonal,2.1129,8.900995881,H2
mp-761315,MnFeO4,MnFeO4,152.11,169,64.267,0.31483,151.5,135.13,49.998,0.35134,151.81,57.132,152.29,0.3328,monoclinic,0,4.74115773,H4
mp-1056,Tb2O3,Tb2O3,140,161.62,61.8,0.3076,140,158.56,60.464,0.31123,140,61.132,160.09,0.30941,cubic,3.912,7.83716974,H2
mp-982558,HoGeO3,HoGeO3,138.33,161.82,62,0.30503,138.33,160.5,61.419,0.30662,138.33,61.709,161.16,0.30583,cubic,0,7.963830435,H1a