Material_ID,Formula,pretty_formula,KV ,EV ,GV ,PV ,KR ,ER ,GR ,PR ,bulk,shear,young,poisson,csyst,gap,density,y_cla
mp-867216,TaFeRu2,TaFeRu2,235.67,276.54,106,0.30443,235.67,272.43,104.19,0.30733,235.67,105.1,274.49,0.30588,cubic,0,12.30192042,H1a
mp-676861,AlSbO4,AlSbO4,203.89,324.36,131.33,0.23486,191.47,271.56,107.45,0.26362,197.68,119.39,298.15,0.24862,orthorhombic,1.6178,5.632514526,H2
mp-12700,NbPt3,NbPt3,249.89,271.05,102.73,0.31922,249.87,259.2,97.656,0.32711,249.88,100.19,265.15,0.32315,monoclinic,0,17.53978989,H4
mp-867274,Be2CoIr,Be2CoIr,218,286,111.6,0.28135,218,285.12,111.2,0.28202,218,111.4,285.56,0.28168,cubic,0,11.16765132,H1a
mp-1025497,AlV2C,AlV2C,170.67,314.83,132,0.19255,170.62,311.49,130.25,0.19572,170.64,131.13,313.16,0.19413,hexagonal,0,4.872389282,H4
mp-864936,MnGeRu2,MnGeRu2,228,286.51,111,0.29057,228,271.77,104.42,0.30134,228,107.71,279.17,0.29593,cubic,0,10.07432358,H1a
mp-867304,BeVFe2,BeVFe2,222.67,286.43,111.4,0.2856,222.67,278.63,107.88,0.29144,222.67,109.64,282.54,0.28852,cubic,0,6.82392806,H1a
mp-1029359,CaHfN2,CaHfN2,170.89,315.17,132.13,0.19262,170.35,310.62,129.85,0.19611,170.62,130.99,312.9,0.19436,trigonal,0.6365,7.781490168,H2
mp-865003,Be2IrPd,Be2IrPd,216.33,291.34,114.2,0.27555,216.33,280.58,109.28,0.28383,216.33,111.74,285.98,0.27968,cubic,0,11.81575678,H1a
mp-1025425,Co3H,Co3H,214.11,288,112.87,0.27582,213.71,286.83,112.37,0.27631,213.91,112.62,287.41,0.27607,hexagonal,0,8.565684126,H4
mp-11456,HfPt3,HfPt3,232.89,277.31,106.53,0.30154,232.88,273.41,104.81,0.30433,232.89,105.67,275.36,0.30293,hexagonal,0,19.26316922,H4
mp-978552,SiRh3,SiRh3,237.11,156.43,56.267,0.39005,237.03,375.91,152.11,0.23568,237.07,104.19,272.62,0.30834,tetragonal,0,10.19193017,H4
mp-2536,Ni2B,Ni2B,251.33,267.21,101,0.32281,248.69,260.44,98.247,0.32546,250.01,99.623,263.83,0.32412,tetragonal,0,8.10839559,H4
mp-998964,TiGaFeCo,TiGaFeCo,203.67,294.17,116.8,0.25927,203.67,292.27,115.91,0.26082,203.67,116.35,293.22,0.26005,cubic,0,7.852732485,H1a
mp-10854,Tb(BC)2,Tb(BC)2,201.11,327.87,133.47,0.22828,158.26,285.86,119.21,0.19896,179.69,126.34,307.05,0.21519,tetragonal,0,6.571371108,H4
mp-570287,Ta5Si3,Ta5Si3,212,293.89,115.8,0.26895,209.97,283.3,111.09,0.27512,210.98,113.44,288.61,0.27201,tetragonal,0,12.78858745,H4
mp-2783,Ta2Si,Ta2Si,215.22,290.97,114.13,0.27468,215.03,281,109.58,0.2822,215.13,111.86,286,0.27843,tetragonal,0,13.27459485,H4
mp-2997,ThB2C,ThB2C,181.89,314.83,129.93,0.21152,181.41,296.65,120.84,0.22746,181.65,125.39,305.8,0.21943,trigonal,0,8.911380018,H2
mp-570074,Sc3IrC4,Sc3IrC4,193.78,303.88,122.67,0.23864,185.8,298.23,120.99,0.23249,189.79,121.83,301.06,0.23562,monoclinic,0,6.629449555,H4
mp-3614,KTaO3,KTaO3,188.33,310.68,126.8,0.22507,188.33,292.82,117.99,0.24087,188.33,122.39,301.8,0.23292,cubic,2.1532,6.796251592,H2
mp-865562,Be3Ru,Be3Ru,181.78,329.76,137.67,0.19766,181.27,279.7,112.53,0.24283,181.53,125.1,305.18,0.2198,tetragonal,0,5.603850078,H4
mp-568671,V5Si3,V5Si3,194.11,302.33,121.87,0.24041,193.36,293.91,117.88,0.24666,193.74,119.87,298.13,0.24352,tetragonal,0,5.379232288,H4
mp-1008528,B2AsP,B2AsP,151,325.72,142.8,0.14048,150.19,315.82,137.37,0.14955,150.6,140.08,320.79,0.14499,tetragonal,1.4447,4.128914813,H1a
mp-761341,TiVO4,TiVO4,223.56,303.49,119.13,0.27374,221.41,256.21,98.006,0.30713,222.48,108.57,280.14,0.29014,tetragonal,1.2085,4.287450605,H1a
mp-9906,Y(Re2Si)2,Y(Re2Si)2,238.78,138.29,49.267,0.40347,238.71,384.85,156.28,0.2313,238.74,102.77,269.63,0.31177,tetragonal,0,12.97183873,H4
mp-229,ZrRh3,ZrRh3,211.33,295.46,116.6,0.26699,211.33,278.53,108.77,0.28034,211.33,112.69,287.04,0.27363,cubic,0,10.58653928,H1a
mp-633538,B9C,B9C,196.56,312.13,126.33,0.23534,194.2,280.81,111.52,0.25901,195.38,118.93,296.6,0.24699,triclinic,0,2.422237925,H4
mp-570684,ZrOs2,ZrOs2,265.11,255.23,95.267,0.33955,264.69,248.44,92.456,0.34357,264.9,93.861,251.84,0.34155,hexagonal,0,15.28262683,H4
mp-570960,HfOs2,HfOs2,274.11,250.81,93.067,0.3475,273.67,240.51,88.847,0.35353,273.89,90.957,245.68,0.3505,hexagonal,0,18.4085175,H4
mp-19905,Co2Si,Co2Si,227,280.54,108.4,0.29402,223.63,274.78,106.08,0.2952,225.31,107.24,277.66,0.29461,orthorhombic,0,7.586966265,H4
mp-862790,FeSiTc2,FeSiTc2,244.33,282.85,108.2,0.30706,244.33,247.27,92.866,0.33133,244.33,100.53,265.22,0.31908,cubic,0,8.909240118,H1a
mp-30444,Be22W,Be22W,133,327.05,150,0.090164,133,326.65,149.75,0.090669,133,149.87,326.85,0.090416,cubic,0,3.282210985,H1a
mp-5578,LuB2Ru3,LuB2Ru3,223.56,281.58,109.13,0.29007,222.93,275.69,106.54,0.29389,223.24,107.83,278.64,0.29198,hexagonal,0,10.5553436,H4
mp-862705,AlZnIr2,AlZnIr2,221,282.6,109.8,0.28688,221,276.99,107.27,0.29111,221,108.53,279.8,0.28899,cubic,0,14.26110295,H1a
mp-998980,TiAlFeCo,TiAlFeCo,175,307.18,127.2,0.20745,175,306.57,126.89,0.20803,175,127.04,306.87,0.20774,cubic,0.1207,6.42314213,H5
mp-20738,FeSi2,FeSi2,185.11,305.43,124.67,0.225,180.22,299.51,122.45,0.22302,182.67,123.56,302.47,0.22402,tetragonal,0,4.948231888,H4
mp-5410,SmCo3B2,SmCo3B2,217.67,285.5,111.4,0.2814,217.66,277.32,107.69,0.28765,217.66,109.54,281.42,0.28452,hexagonal,0,8.637473087,H4
mp-10058,YbCo3B2,YbCo3B2,199.33,293.14,116.8,0.2549,199.23,291.93,116.23,0.25578,199.28,116.52,292.54,0.25534,hexagonal,0,9.682528041,H4
mp-1716,Rh2O3,Rh2O3,233.11,275.39,105.67,0.30311,231.93,267.5,102.27,0.30777,232.52,103.97,271.45,0.30543,orthorhombic,0.5693,7.968573348,H2
mp-530274,Al23B50,Al23B50,190.33,383.67,164.8,0.16404,181.47,206.59,78.835,0.31027,185.9,121.82,299.94,0.2311,triclinic,0,3.044723378,H4
mp-649,FePt3,FePt3,266.67,259.53,97,0.33779,266.67,237.15,87.719,0.35178,266.67,92.36,248.4,0.34475,cubic,0,18.37242733,H1a
mp-10046,V2AsC,V2AsC,203,300.32,119.8,0.25343,202.71,279.07,109.82,0.27055,202.85,114.81,289.77,0.26192,hexagonal,0,6.552641496,H4
mp-19800,Fe11Si5,Fe11Si5,218.33,295.64,116,0.27432,218.33,264,101.66,0.29848,218.33,108.83,279.97,0.28628,cubic,0,7.251635347,H1a
mp-2773,BeCo,BeCo,195,302.43,121.8,0.24151,195,285.79,113.79,0.25574,195,117.8,294.16,0.24858,cubic,0,6.479698338,H1a
mp-21371,VCoSi,VCoSi,209.78,293.13,115.67,0.26711,209.19,277.33,108.41,0.27905,209.49,112.04,285.26,0.27304,orthorhombic,0,6.335383159,H4
mp-510412,Si3Ru4,Si3Ru4,238.44,279.84,107.27,0.3044,225.85,261.52,100.05,0.30701,232.15,103.66,270.68,0.30567,orthorhombic,0,8.861900727,H4
mp-37307,Na(WO3)2,Na(WO3)2,213.67,321.75,128.8,0.24903,213.67,241.07,91.873,0.31196,213.67,110.34,282.4,0.27972,cubic,0,6.79669845,H1a
mp-1776,UN2,UN2,250,287.33,109.8,0.30844,250,229.37,85.135,0.34709,250,97.468,258.77,0.32748,cubic,0.7736,12.01551908,H5
mp-972222,TaBeO3,TaBeO3,208.33,285.8,112.4,0.27136,208.33,284.51,111.8,0.27239,208.33,112.1,285.16,0.27188,cubic,0,9.864051248,H1a
mp-866062,HfSiRu2,HfSiRu2,224.33,279.64,108.2,0.29224,224.33,270.16,103.96,0.29929,224.33,106.08,274.91,0.29576,cubic,0.3322,11.45137936,H5
mp-864943,MnBe2Ir,MnBe2Ir,220.33,289.51,113,0.28101,220.33,265.12,102.01,0.29946,220.33,107.51,277.4,0.29017,cubic,0,10.29404203,H1a
mp-1001789,IrC,IrC,284.33,244.72,90.2,0.35655,284.33,224.59,82.068,0.36835,284.33,86.134,234.7,0.36243,cubic,0,13.62450148,H1a
mp-5639,Mg2SiO4,Mg2SiO4,185.67,301.85,122.8,0.22904,185.67,294.9,119.37,0.23527,185.67,121.08,298.39,0.23215,cubic,4.7454,3.448250693,H2
mp-16272,Ce(FeP3)4,Ce(FeP3)4,161,312.11,132.6,0.1769,161,311.23,132.12,0.17782,161,132.36,311.67,0.17736,cubic,0.538,5.171877888,H5
mp-10856,Er(BC)2,Er(BC)2,204.89,327.08,132.53,0.23394,151.21,277.45,116.17,0.19419,178.05,124.35,302.61,0.21674,tetragonal,0,7.060278853,H4
mp-580,PuB2,PuB2,141.11,328.44,147.67,0.11208,137.4,314.65,140.68,0.11832,139.25,144.17,321.55,0.11515,hexagonal,0,12.80107993,H4
mp-1565,ZrO2,ZrO2,234.67,304.5,118.6,0.28373,234.67,229.65,85.888,0.3369,234.67,102.24,267.83,0.30978,cubic,3.2962,5.992210708,H2
mp-10201,Ge2Mo,Ge2Mo,155.78,316.15,136.07,0.16175,155.58,311.54,133.57,0.16625,155.68,134.82,313.85,0.16399,tetragonal,0,8.648910399,H4
mp-755483,Al2O3,Al2O3,214.22,294.65,115.93,0.27076,211.18,268.25,104.11,0.2883,212.7,110.02,281.52,0.27941,trigonal,4.0976,3.638261458,H2
mp-864950,MnAlIr2,MnAlIr2,230.67,289.19,112,0.29104,230.67,250.35,94.895,0.31911,230.67,103.45,269.98,0.30493,cubic,0,13.89339168,H1a
mp-4492,MnCo2Si,MnCo2Si,219.33,290.63,113.6,0.27916,219.33,263.65,101.43,0.29966,219.33,107.51,277.24,0.28933,cubic,0,7.479468841,H1a
mp-977425,Ta2CrRu,Ta2CrRu,257.67,267.05,100.6,0.32727,257.67,236.37,87.732,0.34711,257.67,94.166,251.82,0.33711,cubic,0,13.84197676,H1a
mp-16521,Al3Os2,Al3Os2,203.56,288.06,113.93,0.26415,203.43,285.38,112.69,0.26619,203.49,113.31,286.72,0.26517,tetragonal,0,10.98122996,H4
mp-1017546,ZrN,ZrN,237.89,292.96,113.13,0.29475,231.36,239.86,90.363,0.32721,234.62,101.75,266.69,0.31055,hexagonal,0,6.831220122,H4
mp-865554,Mn2VGe,Mn2VGe,224.33,280.98,108.8,0.29125,224.33,265.58,101.93,0.30269,224.33,105.37,273.31,0.29695,cubic,0,8.087681328,H1a
mp-865585,VGeRu2,VGeRu2,239,263.74,100.2,0.31608,239,263.39,100.05,0.31632,239,100.12,263.57,0.3162,cubic,0,9.737062698,H1a
mp-1585,V3Co,V3Co,211,288.51,113.4,0.27211,211,274.22,106.83,0.2834,211,110.12,281.4,0.27773,cubic,0,6.985026991,H1a
mp-1040472,KWO3,KWO3,185.67,297,120.4,0.23339,185.67,295.99,119.9,0.2343,185.67,120.15,296.5,0.23385,cubic,0,6.940053084,H1a
mp-949,CoPt,CoPt,216.11,290.57,113.87,0.27591,215.32,265.65,102.62,0.29438,215.72,108.24,278.19,0.28506,tetragonal,0,15.54480999,H4
mp-29674,Al2B2Ru3,Al2B2Ru3,230.11,276.27,106.27,0.2999,229.24,261.77,99.935,0.30968,229.68,103.1,269.05,0.30476,orthorhombic,0,7.891567187,H4
mp-23080,AlBiO3,AlBiO3,191.33,296.93,119.6,0.24135,191.33,288.47,115.5,0.24872,191.33,117.55,292.71,0.24502,cubic,1.9384,8.680681447,H5
mp-19399,Cr2O3,Cr2O3,204,288.72,114.2,0.26411,203.19,281.54,110.93,0.26907,203.6,112.56,285.14,0.26658,trigonal,2.4343,4.904330425,H2
mp-865495,V2CrTc,V2CrTc,237.33,272.24,104,0.30882,237.33,255.07,96.552,0.32088,237.33,100.28,263.69,0.31482,cubic,0,7.954744726,H1a
mp-866083,Zr3N2,Zr3N2,195.78,289.91,115.67,0.2532,195.78,289.74,115.59,0.25334,195.78,115.63,289.82,0.25327,trigonal,0,6.813904696,H2
mp-5924,MgSiO3,MgSiO3,193.56,307.22,124.33,0.23546,188.41,277.85,110.77,0.25422,190.98,117.55,292.61,0.24464,trigonal,5.9063,3.671345043,H2
mp-1025246,Er2B4C,Er2B4C,169.44,323.87,137.07,0.18144,167.96,285.71,117.43,0.21649,168.7,127.25,305.05,0.19863,orthorhombic,0,8.158865103,H4
mp-22394,ThRu3C,ThRu3C,222.67,274.45,106,0.29457,222.67,271.42,104.65,0.29684,222.67,105.32,272.94,0.2957,cubic,0,11.98890718,H1a
mp-864670,Ta2VOs,Ta2VOs,247.33,258.29,97.4,0.32595,247.33,255.25,96.102,0.328,247.33,96.751,256.77,0.32697,cubic,0,15.7106511,H1a
mp-5620,TmB2Ru3,TmB2Ru3,214.89,280,109.13,0.28283,214.83,275.47,107.08,0.28629,214.86,108.11,277.74,0.28456,hexagonal,0,10.37919713,H4
mp-13137,Hf2CS,Hf2CS,177.33,302.47,124.4,0.21572,176.87,297.62,122.02,0.21956,177.1,123.21,300.05,0.21763,hexagonal,0,11.15244066,H4
mp-27488,Ta3N5,Ta3N5,241.56,270.39,102.93,0.31344,239.62,250.65,94.537,0.32566,240.59,98.735,260.56,0.3195,orthorhombic,1.2571,9.746088594,H2
mp-1007923,CrNi3,CrNi3,222,290.26,113.2,0.28208,221.33,254.81,97.393,0.30813,221.67,105.3,272.71,0.29496,tetragonal,0,8.618942366,H4
mp-1016821,BaSiO3,BaSiO3,178.33,342.99,145.4,0.17945,178.33,251.28,99.308,0.26516,178.33,122.35,298.74,0.2208,cubic,1.0186,6.273519937,H5
mp-1017531,VPt,VPt,238.89,282.32,108.33,0.30303,236.53,241.16,90.658,0.33007,237.71,99.495,261.94,0.31634,orthorhombic,0,14.23314113,H4
mp-10300,ZrMoP,ZrMoP,197.78,289.13,115.07,0.25635,197.63,285.32,113.28,0.25939,197.71,114.17,287.23,0.25787,hexagonal,0,7.477221657,H4
mp-2657,TiO2,TiO2,214.22,309.58,122.93,0.25914,203.8,250.1,96.527,0.29547,209.01,109.73,280.16,0.2766,tetragonal,1.7719,4.125562493,H1a
mp-865021,Be2RuPt,Be2RuPt,222.67,275.79,106.6,0.29357,222.67,266.76,102.57,0.30033,222.67,104.59,271.29,0.29694,cubic,0,11.71407156,H1a
mp-30858,ZrPt3,ZrPt3,228.33,272.23,104.6,0.30129,228.33,262.73,100.41,0.30823,228.33,102.51,267.49,0.30475,cubic,0,16.83104058,H1a
mp-867270,Be2CoPt,Be2CoPt,206.33,281.5,110.6,0.27262,206.33,280.61,110.19,0.27334,206.33,110.39,281.05,0.27298,cubic,0,11.1454494,H1a
mp-23807,AlHO2,AlHO2,157.44,312.91,133.87,0.16876,152.17,307,131.9,0.16376,154.81,132.88,309.96,0.16629,orthorhombic,6.0892,3.423455784,H2
mp-9244,LiBC,LiBC,181.33,388.92,170.2,0.14254,124.67,231.88,97.429,0.19001,153,133.81,310.83,0.16141,hexagonal,1.1272,2.15144616,H1a
mp-999263,RhN,RhN,287.22,254.59,94.133,0.35227,280.86,203.94,73.945,0.37898,284.04,84.039,229.48,0.36534,hexagonal,0,9.359107327,H4
mp-567842,TaBe12,TaBe12,137.44,322.26,145.27,0.10922,136.6,313.09,140.02,0.11799,137.02,142.65,317.69,0.11357,tetragonal,0,4.277046508,H4
mp-22746,CoSi,CoSi,195.67,13.693,4.6,0.48834,195.67,486.66,224.17,0.085465,195.67,114.39,287.19,0.25537,cubic,0,6.715869199,H1a
mp-865048,TiZnIr2,TiZnIr2,225.33,277.13,107,0.29502,225.33,260.06,99.438,0.30765,225.33,103.22,268.64,0.3013,cubic,0,14.31377747,H1a
mp-1025183,Ho2B4C,Ho2B4C,164.44,319.58,135.87,0.1761,163.63,290.01,120.38,0.20461,164.04,128.12,304.97,0.19015,orthorhombic,0,7.966367886,H4
mp-6916,Sm(BC)2,Sm(BC)2,191.44,321.33,131.67,0.22025,150.37,280.85,118.13,0.18871,170.91,124.9,301.3,0.20617,tetragonal,0,6.03342762,H4
mp-982725,Nb2RuW,Nb2RuW,200.33,287.9,114.2,0.26049,200.33,280.2,110.59,0.26689,200.33,112.39,284.06,0.26368,cubic,0,11.74882545,H1a
mp-862713,BeGeRu2,BeGeRu2,255.67,248.35,92.8,0.3381,255.67,247.95,92.632,0.33836,255.67,92.716,248.15,0.33823,cubic,0,9.441871037,H1a
mp-976,V6Si5,V6Si5,183.22,296.57,120.53,0.23023,182.43,291.85,118.32,0.23337,182.83,119.42,294.21,0.2318,orthorhombic,0,5.139817166,H4
mp-1007992,CrH,CrH,196.22,67.886,23.533,0.44234,196.16,454.62,204.1,0.11373,196.19,113.82,286.12,0.25694,hexagonal,0,6.062370193,H4
mp-1458,Nb3Ir,Nb3Ir,223,281.63,109.2,0.28951,223,256.88,98.194,0.30801,223,103.7,269.34,0.2987,cubic,0,11.22804624,H1a
mp-1014460,Cr3N4,Cr3N4,137.56,334.74,152.93,0.094413,125.18,303.29,138.34,0.096197,131.37,145.64,319.02,0.095262,cubic,0,5.654537049,H1a
mp-8418,ZrCoP,ZrCoP,192.89,290.58,116.33,0.24892,192.46,285.36,113.88,0.25289,192.68,115.11,287.98,0.2509,orthorhombic,0,7.134040974,H4
mp-864782,Ta2MoRu,Ta2MoRu,204.33,292.63,116,0.26132,204.33,269.02,105.04,0.28057,204.33,110.52,280.91,0.27087,cubic,0,14.13498435,H1a
mp-20424,MgCo3C,MgCo3C,197.67,290.22,115.6,0.25529,197.67,279.52,110.54,0.26431,197.67,113.07,284.89,0.25979,cubic,0,6.563379206,H1a
mp-861873,TaTlO3,TaTlO3,221.67,272.94,105.4,0.29478,221.67,266.74,102.64,0.29944,221.67,104.02,269.85,0.29711,cubic,0.8663,10.57249765,H5
mvc-10883,YMnO3,YMnO3,266.67,242.21,89.8,0.34862,266.67,236.91,87.618,0.35193,266.67,88.709,239.56,0.35027,cubic,0,5.486572954,H1a
mp-1578,V3Rh,V3Rh,217,279.22,108.6,0.28555,217,265.02,102.21,0.29645,217,105.41,272.15,0.29097,cubic,0,7.76225595,H1a
mp-776532,HfO2,HfO2,220.56,300.71,118.13,0.27276,213.4,242.77,92.632,0.3104,216.98,105.38,272.1,0.29099,tetragonal,3.9087,9.18052403,H4
mp-3466,PrAlO3,PrAlO3,176.44,301.92,124.27,0.21481,176.43,290.73,118.63,0.22536,176.44,121.45,296.35,0.22006,trigonal,4.2213,6.521624687,H2
mp-3155,Sc3FeC4,Sc3FeC4,179,297.84,121.8,0.22268,177.15,292.56,119.43,0.22476,178.08,120.62,295.2,0.22371,orthorhombic,0,4.427777554,H4
mp-11278,Ta2Be,Ta2Be,186.89,292.72,118.13,0.23895,186.81,287.29,115.5,0.2437,186.85,116.82,290.01,0.24132,tetragonal,0,13.76091757,H4
mp-30850,TaPt3,TaPt3,261.44,254.85,95.267,0.33754,261.43,229.01,84.568,0.354,261.44,89.917,242.01,0.34572,orthorhombic,0,19.90951109,H4
mp-3093,ErB2Ru3,ErB2Ru3,214.67,275.26,107,0.28628,214.6,270.4,104.8,0.29,214.63,105.9,272.83,0.28814,hexagonal,0,10.30379531,H4
mp-861912,TaTiTc2,TaTiTc2,229,269.17,103.2,0.3041,229,257.98,98.298,0.31224,229,100.75,263.59,0.30816,cubic,0,11.26501327,H1a
mp-5075,Sc3CoC4,Sc3CoC4,180.56,295.78,120.53,0.22697,179.28,291.64,118.66,0.22888,179.92,119.6,293.71,0.22792,orthorhombic,0,4.497399711,H4
mp-32994,Hf4N3,Hf4N3,225,277.08,107,0.29476,224.65,255.05,97.288,0.31078,224.82,102.14,266.13,0.30271,tetragonal,0,13.40637669,H4
mp-592,TiRu,TiRu,212,282.21,110.4,0.27814,212,266.19,103.12,0.29073,212,106.76,274.24,0.2844,cubic,0,8.419437355,H1a
mp-579,CrC,CrC,208,296.85,117.6,0.26214,208,255.98,98.844,0.29489,208,108.22,276.68,0.2783,cubic,0,6.132123817,H1a
mp-861978,Hf2ReIr,Hf2ReIr,215.33,272.73,105.8,0.28891,215.33,271.32,105.16,0.29,215.33,105.48,272.03,0.28945,cubic,0,17.42825232,H1a
mp-16495,AlCrFe2,AlCrFe2,239.67,268.9,102.4,0.313,239.67,243.34,91.429,0.33078,239.67,96.914,256.21,0.32183,cubic,0,6.94949447,H1a
mp-27861,Ce(Re2Si)2,Ce(Re2Si)2,193.67,295.07,118.4,0.24607,192.33,276.37,109.63,0.2605,193,114.01,285.77,0.25322,orthorhombic,0,13.16311372,H4
mp-21343,CeB6,CeB6,175,332.33,140.4,0.1835,175,256.86,102.3,0.25537,175,121.35,295.7,0.21838,cubic,0,4.886744583,H1a
mp-10247,U2CrN3,U2CrN3,230.89,275.64,105.93,0.30103,220.96,253.62,96.898,0.3087,225.92,101.42,264.65,0.30477,orthorhombic,0,12.70245498,H4
mp-38280,LiTiO2,LiTiO2,174.67,305.12,126.2,0.20886,166.07,291.19,120.55,0.20776,170.37,123.38,298.15,0.20832,tetragonal,0,4.06672063,H4
mp-883,HoN,HoN,163.67,301.57,126.4,0.19291,163.67,301.51,126.37,0.19296,163.67,126.38,301.54,0.19294,cubic,0.2401,10.23272256,H5
mp-825,RuO2,RuO2,257,306.11,117.6,0.30149,246.81,185.08,67.302,0.37502,251.91,92.451,247.12,0.3365,tetragonal,0,6.81894804,H4
mp-7576,CrSi,CrSi,186.67,288.7,116.2,0.24224,186.67,288.57,116.14,0.24235,186.67,116.17,288.63,0.24229,cubic,0,5.466414956,H1a
mp-226,FeS2,FeS2,146,316.89,139.2,0.13825,146,303.26,131.42,0.15381,146,135.31,310.12,0.14598,cubic,0.4573,5.050093214,H5
mp-977363,Ta2TcMo,Ta2TcMo,195,290,115.8,0.25214,195,277.07,109.67,0.26319,195,112.73,283.56,0.25764,cubic,0,13.92800357,H1a
mp-10739,TiPRu,TiPRu,221.11,268.52,103.47,0.2976,220.2,266.49,102.63,0.2983,220.66,103.05,267.5,0.29795,hexagonal,0,7.173677561,H4
mp-15805,Mn3ZnN,Mn3ZnN,194.67,288.24,115,0.25322,194.67,279.08,110.65,0.26107,194.67,112.83,283.67,0.25713,cubic,0,7.447453627,H1a
mvc-11548,CrO3,CrO3,224,298.95,117,0.27757,224,230.2,86.625,0.32872,224,101.81,265.25,0.30264,cubic,0,3.36814197,H1a
mvc-11730,YVO3,YVO3,206.56,285.71,112.53,0.26946,204.65,267.35,104.25,0.28227,205.6,108.39,276.57,0.2758,tetragonal,0,5.230961248,H4
mp-2082,PIr2,PIr2,317.67,277.39,102.4,0.35446,317.67,119.39,41.531,0.43736,317.67,71.966,200.74,0.39468,cubic,0,15.75040326,H1a
mp-944,AlB2,AlB2,190.67,361.76,152.8,0.18377,179.09,209.59,80.308,0.30494,184.88,116.55,288.94,0.23952,hexagonal,0,3.147666212,H4
mp-22268,ZrPRu,ZrPRu,207.67,277.44,108.6,0.27734,207.39,272.8,106.5,0.28077,207.53,107.55,275.12,0.27905,orthorhombic,0,7.963823777,H4
mp-30811,Ni4W,Ni4W,234.22,277.98,106.73,0.3022,234.21,236.97,88.994,0.33137,234.21,97.864,257.7,0.31662,tetragonal,0,11.89007194,H4
mp-7632,NiMoP,NiMoP,241.44,255.39,96.467,0.32371,240.55,251.04,94.655,0.32607,241,95.561,253.21,0.32489,hexagonal,0,8.299220746,H4
mp-37614,Al2NiO4,Al2NiO4,203.56,284.64,112.33,0.26694,203.24,269.81,105.5,0.27875,203.4,108.92,277.26,0.27281,orthorhombic,3.2583,4.400829086,H2
mp-867779,Ta2CrFe,Ta2CrFe,232.33,271.49,104,0.30524,232.33,245.35,92.655,0.324,232.33,98.328,258.51,0.31455,cubic,0,13.4223921,H1a
mp-685097,HfO2,HfO2,210.22,279.1,109.13,0.27872,208.81,267.13,103.8,0.28678,209.51,106.47,273.13,0.28272,orthorhombic,4.3858,10.37422452,H2
mp-571438,Be12V,Be12V,129.67,317.2,145.2,0.092288,129.65,313.42,142.84,0.097081,129.66,144.02,315.31,0.094679,tetragonal,0,2.448925848,H4
mp-10266,ZnFe3C,ZnFe3C,213,278.47,108.6,0.2821,213,263.12,101.66,0.29411,213,105.13,270.83,0.28808,cubic,0,7.573775786,H1a
mp-864953,MnV2Cr,MnV2Cr,231,273.55,105,0.30263,231,244.37,92.306,0.32369,231,98.653,259.08,0.31308,cubic,0,7.151615215,H1a
mp-8973,NaSi2N3,NaSi2N3,186.22,294.17,118.93,0.23672,184.36,280.95,112.74,0.24601,185.29,115.84,287.58,0.24132,orthorhombic,4.194,3.107330001,H2
mp-20335,MnNbP,MnNbP,229.22,275.38,105.93,0.29977,226.54,246.47,93.453,0.31867,227.88,99.693,261.02,0.3091,orthorhombic,0,7.462932028,H4
mp-1025557,CoMoP2,CoMoP2,199,282.92,112,0.26305,196.36,277.01,109.5,0.26487,197.68,110.75,279.97,0.26395,hexagonal,0,6.807757145,H4