Material_ID,Formula,pretty_formula,KV ,EV ,GV ,PV ,KR ,ER ,GR ,PR ,bulk,shear,young,poisson,csyst,gap,density,y_cla
mp-568827,Be12W,Be12W,144.44,349.07,159.07,0.097232,144.35,344.49,156.27,0.10224,144.4,157.67,346.79,0.099727,tetragonal,0,4.444905201,H4
mp-9880,YB2C,YB2C,182.78,340.01,142.87,0.18996,170.62,323.99,136.88,0.18352,176.7,139.87,332.01,0.18684,tetragonal,0,4.69279243,H4
mp-9956,AlCr2C,AlCr2C,189.22,325.49,134.13,0.21331,189.01,324.23,133.52,0.2141,189.12,133.83,324.86,0.21371,hexagonal,0,5.338343764,H4
mp-29076,FeWN2,FeWN2,226.56,338.17,135.13,0.25123,222.17,268.88,103.55,0.29829,224.36,119.34,304.11,0.2741,hexagonal,0,11.13071395,H4
mp-11537,NbAlRu2,NbAlRu2,230.33,300.61,117.2,0.28248,230.33,300.13,116.98,0.28283,230.33,117.09,300.37,0.28266,cubic,0,8.956131589,H1a
mp-20812,InN,InN,254.33,285.67,108.8,0.3128,254.33,283.97,108.06,0.31392,254.33,108.43,284.82,0.31336,cubic,0,8.192187254,H1a
mp-12104,NbSi2,NbSi2,175.89,333.68,140.93,0.18382,173.71,330.71,139.81,0.1827,174.8,140.37,332.19,0.18326,hexagonal,0,5.577439821,H4
mp-2478,NbSi2,NbSi2,175.89,333.68,140.93,0.18382,173.71,330.71,139.81,0.1827,174.8,140.37,332.19,0.18326,hexagonal,0,5.578318704,H4
mp-865280,NbAlFe2,NbAlFe2,211.67,311.23,124,0.25494,211.67,311.2,123.99,0.25496,211.67,123.99,311.21,0.25495,cubic,0.3314,7.34710715,H5
mp-567164,BRh,BRh,278.44,295.5,111.67,0.32313,271.83,244.85,90.694,0.34987,275.14,101.18,270.4,0.3362,hexagonal,0,9.116520177,H4
mp-11452,HfOs,HfOs,229.33,301.74,117.8,0.28071,229.33,298.04,116.11,0.2834,229.33,116.96,299.89,0.28206,cubic,0,17.69125639,H1a
mp-30738,LiIr3,LiIr3,243.56,302.85,117.13,0.29276,241.52,279.87,107.08,0.30687,242.54,112.1,291.41,0.29974,orthorhombic,0,17.36844508,H4
mp-569989,Nb2C,Nb2C,227.67,307.07,120.4,0.27521,227.56,292.64,113.81,0.28566,227.61,117.11,299.89,0.28041,orthorhombic,0,7.67375624,H4
mp-5313,HoCo3B2,HoCo3B2,215.11,311.76,123.87,0.25845,214.75,302.83,119.7,0.26497,214.93,121.78,307.3,0.2617,hexagonal,0,9.272024077,H4
mp-12593,ScIr3,ScIr3,243,317.05,123.6,0.28255,243,260.59,98.615,0.32127,243,111.11,289.24,0.30162,cubic,0,16.76164848,H1a
mp-12107,TiPt3,TiPt3,236.67,300.9,116.8,0.2881,236.67,285.3,109.81,0.29909,236.67,113.3,293.13,0.29357,cubic,0,17.03308044,H1a
mp-4071,Er2(NiB2)3,Er2(NiB2)3,176.11,330.64,139.27,0.18709,175.59,327.07,137.48,0.18954,175.85,138.37,328.86,0.18831,orthorhombic,0,8.361676661,H4
mp-1013564,Sr3BiAs,Sr3BiAs,575,55.205,18.6,0.484,575,46.429,15.616,0.48654,575,17.108,50.821,0.48527,cubic,0.4491,4.465966311,H5
mp-999576,Mn2SiRu,Mn2SiRu,232.33,303.62,118.4,0.28219,232.33,287.8,111.25,0.29354,232.33,114.82,295.75,0.28784,cubic,0,8.157901138,H1a
mp-965,TbB2,TbB2,163.44,336.2,145.27,0.15717,163.25,333.43,143.77,0.1596,163.35,144.52,334.82,0.15838,hexagonal,0,8.110466522,H4
mp-1359,NbIr,NbIr,259.44,296.63,113.27,0.30944,258.09,259.9,97.546,0.33217,258.77,105.41,278.42,0.32068,tetragonal,0,14.60516011,H4
mp-11328,P2W,P2W,189.33,325.26,134,0.21368,186.8,318.64,131.05,0.21571,188.07,132.53,321.96,0.21468,orthorhombic,0,9.11985255,H4
mp-5304,LaAlO3,LaAlO3,193.67,323.48,132.4,0.22161,193.67,314.07,127.7,0.22972,193.67,130.05,318.79,0.22565,cubic,3.5755,6.415375295,H2
mp-865840,Ti2TcIr,Ti2TcIr,226.33,305.07,119.6,0.27536,226.33,292.28,113.75,0.28477,226.33,116.67,298.7,0.28005,cubic,0,10.73571397,H1a
mp-1885,AlIr,AlIr,229.33,297.79,116,0.28358,229.33,295.39,114.91,0.28532,229.33,115.46,296.59,0.28445,cubic,0,13.24493796,H1a
mp-865586,VGaRu2,VGaRu2,238.67,290.55,112,0.2971,238.67,290.55,112,0.2971,238.67,112,290.55,0.2971,cubic,0,9.79341788,H1a
mp-568384,ScB2,ScB2,174.33,333.55,141.2,0.18112,174.33,322.8,135.47,0.1914,174.33,138.33,328.2,0.18624,cubic,0,3.847195295,H1a
mp-3000,Cr3GaN,Cr3GaN,236.33,305.69,119,0.28442,236.33,277.21,106.25,0.30451,236.33,112.62,291.56,0.29439,cubic,0,7.089651899,H1a
mp-865640,TiGeRu2,TiGeRu2,226.33,298.53,116.6,0.28017,226.33,296.96,115.88,0.28132,226.33,116.24,297.75,0.28075,cubic,0.0942,9.276389351,H5
mp-977563,LiNbIr2,LiNbIr2,278.67,269.38,100.6,0.33889,278.67,257.51,95.658,0.34599,278.67,98.129,263.46,0.34243,cubic,0,13.65006765,H1a
mp-2705,VPt3,VPt3,240.78,302.22,117.07,0.2908,240.65,274.6,104.82,0.30982,240.71,110.95,288.51,0.30024,tetragonal,0,17.56594322,H4
mp-1975,TmN,TmN,180.33,324.5,135.2,0.20009,180.33,324.34,135.11,0.20024,180.33,135.16,324.42,0.20017,cubic,0.306,10.90296244,H5
mp-675172,TaAlO4,TaAlO4,220.11,336.39,135.07,0.24529,204.15,274.52,107.58,0.27589,212.13,121.32,305.69,0.25983,orthorhombic,1.8196,7.08305044,H2
mp-2225,Be2Fe,Be2Fe,158.44,335.2,146.07,0.14741,158.43,334.34,145.58,0.14828,158.44,145.83,334.77,0.14785,hexagonal,0,4.769353023,H4
mp-864671,HfAlRh2,HfAlRh2,187.67,18.984,6.4,0.48314,187.67,528.75,256.57,0.030419,187.67,131.48,319.77,0.21601,cubic,0,10.87105452,H1a
mp-372,VPt3,VPt3,241.33,294.58,113.6,0.29656,241.33,279.5,106.92,0.30698,241.33,110.26,287.07,0.30175,cubic,0,17.47473626,H1a
mp-867837,BeCrRu2,BeCrRu2,269,268.82,100.8,0.33344,269,268.77,100.78,0.33348,269,100.79,268.8,0.33346,cubic,0,9.069539087,H1a
mp-2420,PW,PW,227.89,309.57,121.53,0.2736,215.2,289.37,113.4,0.27589,221.55,117.47,299.47,0.27471,orthorhombic,0,12.10182246,H4
mp-1018054,HfPt3,HfPt3,230.67,297.16,115.6,0.28529,230.67,289.87,112.3,0.29056,230.67,113.95,293.52,0.28792,cubic,0,19.32649688,H1a
mp-7599,BeO,BeO,171.67,329.86,139.8,0.17975,169.94,326.35,138.29,0.17994,170.8,139.05,328.1,0.17984,tetragonal,7.3457,2.85458473,H4
mp-10155,P2Ir,P2Ir,194.44,326.24,133.67,0.22036,192.16,304.89,123.38,0.23556,193.3,128.52,315.62,0.22787,monoclinic,0.7785,9.07696832,H4
mp-862778,AlSiRu2,AlSiRu2,236,291.89,112.8,0.29386,236,287.28,110.74,0.29712,236,111.77,289.59,0.29549,cubic,0,8.201259241,H1a
mp-567617,RhN2,RhN2,220.78,337.39,135.47,0.2453,205.81,269.29,105.03,0.28193,213.29,120.25,303.68,0.26271,monoclinic,0,7.647568065,H4
mp-867123,TaTiOs2,TaTiOs2,268,277.2,104.4,0.32761,268,259.49,96.923,0.33863,268,100.66,268.38,0.3331,cubic,0,16.24397991,H1a
mp-21048,CrP,CrP,176.44,335.64,141.87,0.18296,169.02,317.37,133.68,0.18704,172.73,137.78,326.51,0.18495,orthorhombic,0,5.669873784,H4
mp-972810,SiTc2W,SiTc2W,278.67,262.19,97.6,0.34319,278.67,260.13,96.746,0.34442,278.67,97.173,261.16,0.3438,cubic,0,11.82085462,H1a
mp-3732,Ti2CS,Ti2CS,179.78,325.2,135.67,0.19852,179.49,320.53,133.29,0.20236,179.63,134.48,322.87,0.20044,hexagonal,0,4.634878183,H4
mp-470,GeO2,GeO2,214.22,334.15,134.73,0.24003,197.31,280.55,111.06,0.26302,205.76,122.9,307.48,0.25095,tetragonal,1.9072,5.942928151,H1a
mp-776331,Zr5N5O2,Zr5N5O2,223.56,315.09,124.53,0.26509,219.62,280.05,108.76,0.28747,221.59,116.65,297.7,0.27608,monoclinic,0,6.292990558,H4
mp-11514,NbPt2,NbPt2,245.11,298.49,115.07,0.29704,243.6,266.53,101.14,0.31765,244.36,108.1,282.63,0.30723,orthorhombic,0,16.49762643,H4
mp-5019,YCo3B2,YCo3B2,205.22,310.74,124.53,0.24764,205.15,303.16,120.91,0.25371,205.19,122.72,306.96,0.25066,hexagonal,0,7.268030989,H4
mp-862781,AlCrRu2,AlCrRu2,230.33,291.35,113,0.28918,230.33,291.35,113,0.28918,230.33,113,291.35,0.28918,cubic,0,8.726919397,H1a
mp-13178,AlN,AlN,208.67,328.27,132.6,0.23781,201.86,284.89,112.62,0.26478,205.26,122.61,306.76,0.25092,hexagonal,3.2687,3.421648366,H1b
mp-9916,NbCrSi,NbCrSi,212.67,308.51,122.6,0.25822,212,296.22,116.89,0.26712,212.33,119.74,302.39,0.26265,hexagonal,0,6.771817378,H4
mp-867786,ScNbOs2,ScNbOs2,226.33,294.59,114.8,0.28307,226.33,292.45,113.83,0.28465,226.33,114.31,293.52,0.28386,cubic,0,13.10170986,H1a
mp-866121,V3Os,V3Os,246,285.37,109.2,0.30666,246,275.77,105,0.31317,246,107.1,280.58,0.3099,cubic,0,10.54292087,H1a
mp-7032,HfMoP,HfMoP,207.56,306.32,122.13,0.25403,207.4,303.05,120.6,0.25647,207.48,121.36,304.68,0.25525,hexagonal,0,10.70911837,H4
mp-1018718,HfTa2N3,HfTa2N3,257.67,312.97,120.6,0.29756,235.05,247.08,93.25,0.3248,246.36,106.92,280.23,0.31042,hexagonal,0,13.53853562,H4
mp-11580,TiCrP,TiCrP,205.33,309.66,124,0.24865,203.68,302.91,120.96,0.25214,204.51,122.48,306.29,0.25038,hexagonal,0,5.65277737,H4
mp-10913,GeO2,GeO2,210.67,308.88,123,0.25563,206.66,298.66,118.6,0.25914,208.66,120.8,303.77,0.25736,orthorhombic,1.533,6.06956855,H2
mp-2662,MnP,MnP,191.22,328.9,135.53,0.21334,180.97,304.58,124.88,0.21949,186.1,130.21,316.75,0.21632,orthorhombic,0,5.958478698,H4
mp-999376,NbPt,NbPt,223.67,297.58,116.4,0.27826,222.65,291.8,113.85,0.28157,223.16,115.12,294.69,0.27991,orthorhombic,0,14.39648024,H4
mp-976943,NaRe3,NaRe3,285.78,270.27,100.67,0.34238,285.78,236.32,86.745,0.36217,285.78,93.706,253.42,0.3522,cubic,0,15.81644488,H1a
mp-1016879,CdSiO3,CdSiO3,248.33,319.8,124.4,0.28537,248.33,234.55,87.349,0.34259,248.33,105.87,278.1,0.31335,cubic,1.1638,6.598592706,H5
mp-542595,Ge2W,Ge2W,171.89,326.47,137.93,0.18345,171.86,320.85,134.94,0.18884,171.87,136.44,323.67,0.18614,tetragonal,0,11.7997795,H4
mp-381,SiRu,SiRu,248,299.26,115.2,0.29888,248,256.15,96.451,0.32786,248,105.83,277.94,0.31321,cubic,0,8.452287797,H1a
mp-10366,Nb2Co3Si,Nb2Co3Si,227.67,296.16,115.4,0.28319,227.6,285.7,110.67,0.29079,227.63,113.03,290.95,0.28698,hexagonal,0,8.371822368,H4
mp-1027,HfRh3,HfRh3,219,306.97,121.2,0.26638,219,285.32,111.21,0.28286,219,116.2,296.22,0.27457,cubic,0,13.10440808,H1a
mp-784631,CrNi2,CrNi2,228.44,313.43,123.27,0.27133,228.26,266.37,102.02,0.30551,228.35,112.64,290.21,0.28819,orthorhombic,0,8.620907303,H4
mp-690490,TiVO4,TiVO4,227.33,318.2,125.6,0.26672,221.85,265.7,102.16,0.30039,224.59,113.88,292.25,0.28313,orthorhombic,1.0758,4.285388243,H2
mp-1014307,ZrC,ZrC,214.89,320.66,128.13,0.25129,202.75,283.15,111.72,0.26725,208.82,119.93,301.97,0.25899,hexagonal,0,6.506336928,H4
mp-571126,Ti2BRh6,Ti2BRh6,227.33,290.82,113,0.28679,227.33,289.73,112.51,0.28759,227.33,112.75,290.27,0.28719,cubic,0,9.698180439,H1a
mp-4798,Sc(AlC)3,Sc(AlC)3,167.89,326.32,138.73,0.17606,165.31,323.95,138.04,0.17339,166.6,138.39,325.13,0.17474,hexagonal,0.0387,3.272985067,H1a
mp-2933,Pr2(ReB2)3,Pr2(ReB2)3,213.78,302.12,119.47,0.26446,212.51,295.37,116.44,0.26835,213.14,117.95,298.75,0.26639,monoclinic,0,10.76646106,H4
mp-20193,DyCo3B2,DyCo3B2,207.22,306.66,122.33,0.25336,207.18,297.96,118.21,0.26031,207.2,120.27,302.32,0.25682,hexagonal,0,9.153779764,H4
mp-865533,Ti2ReOs,Ti2ReOs,239.67,282.59,108.4,0.30348,239.67,281.35,107.85,0.30435,239.67,108.12,281.97,0.30391,cubic,0,13.10128946,H1a
mp-865472,VSiTc2,VSiTc2,256.67,273.94,103.6,0.32212,256.67,267.44,100.82,0.32634,256.67,102.21,270.7,0.32422,cubic,0,8.485054381,H1a
mp-670,NbCo2,NbCo2,231,289.7,112.2,0.29098,231,283.65,109.49,0.29535,231,110.84,286.68,0.29316,cubic,0,9.133730882,H1a
mp-22610,Mn2SnW,Mn2SnW,239,281.59,108,0.30364,239,281.46,107.94,0.30372,239,107.97,281.52,0.30368,cubic,0,12.06178465,H1a
mp-10025,SiRu2,SiRu2,258.33,274.15,103.6,0.32313,254.88,265.23,99.97,0.32656,256.61,101.79,269.7,0.32483,orthorhombic,0,9.542443827,H4
mp-571499,TaIr,TaIr,273.78,267.12,99.867,0.33739,273.71,248.83,92.264,0.34848,273.75,96.065,258.01,0.34291,orthorhombic,0,19.15566076,H4
mp-7596,NbNO,NbNO,238.22,295.25,114.13,0.29344,234.96,269.82,103.1,0.3086,236.59,108.61,282.6,0.30092,monoclinic,1.6033,6.119908807,H4
mp-865494,V2CrRu,V2CrRu,243,289,111,0.30179,243,267.5,101.59,0.31653,243,106.3,278.31,0.30912,cubic,0,8.137760298,H1a
mp-760396,TaAlO4,TaAlO4,218.11,312.88,124.07,0.26092,213.5,277.76,108.23,0.28317,215.81,116.15,295.45,0.27183,tetragonal,2.5896,7.082091226,H4
mp-6986,Ta,Ta,194,28.333,9.6,0.47566,194,510.03,240.16,0.061831,194,124.88,308.46,0.235,cubic,0,15.91499591,H1a
mp-30441,Be17Nb2,Be17Nb2,140.22,336.15,152.73,0.10045,140.22,333.73,151.24,0.10332,140.22,151.99,334.94,0.10189,trigonal,0,3.338361625,H2
mp-19413,AlWO4,AlWO4,208.56,326.46,131.73,0.23911,203.08,275.06,107.93,0.27426,205.82,119.83,301.06,0.2562,monoclinic,2.2667,7.336639691,H2
mp-27953,Mo2N,Mo2N,301.67,262.83,97,0.35479,298.13,215.31,78.033,0.37963,299.9,87.517,239.27,0.36702,tetragonal,0,9.3055614,H4
mp-862609,ScReTc2,ScReTc2,233.33,289.21,111.8,0.29342,233.33,278.37,106.97,0.30117,233.33,109.38,283.8,0.29728,cubic,0,11.39712597,H1a
mp-1017578,HfBRh3,HfBRh3,238.67,285.15,109.6,0.30087,238.67,275.25,105.24,0.30779,238.67,107.42,280.21,0.30432,cubic,0.0873,11.6836673,H5
mp-3040,TbCo3B2,TbCo3B2,209.22,302.92,120.33,0.25869,209.15,293.95,116.12,0.26575,209.18,118.22,298.45,0.26221,hexagonal,0,9.026703522,H4
mp-18468,Mn5SiC,Mn5SiC,221.22,303.87,119.53,0.27107,217.99,279.98,108.86,0.28594,219.61,114.2,291.98,0.27841,orthorhombic,0,7.100412183,H4
mp-4382,YB2Ru3,YB2Ru3,225,289.95,112.8,0.28522,224.99,287.19,111.55,0.28726,224.99,112.18,288.57,0.28624,hexagonal,0,8.584136766,H4
mp-976082,Mn2GaW,Mn2GaW,219.33,303.61,119.6,0.26929,219.33,280.45,108.97,0.28689,219.33,114.28,292.11,0.27803,cubic,0,11.64361182,H1a
mp-867271,Be2CoNi,Be2CoNi,192,311.36,126.6,0.22972,192,305.31,123.61,0.23498,192,125.1,308.34,0.23234,cubic,0,6.457584908,H1a
mp-1002117,TcN,TcN,372.67,314.3,115.6,0.35944,372.67,48.112,16.271,0.47848,372.67,65.935,186.79,0.41646,cubic,0,9.650896725,H1a
mp-493,Co2B,Co2B,250.78,277.04,105.27,0.31588,242.61,271.6,103.39,0.31342,246.69,104.33,274.32,0.31467,tetragonal,0,8.184708965,H4
mp-974341,RuRh3,RuRh3,242.56,285.15,109.33,0.30406,242.54,267.87,101.78,0.31592,242.55,105.56,276.55,0.30997,hexagonal,0,11.98555893,H4
mp-973935,OsN2,OsN2,250.56,396.44,160.33,0.23629,169.05,194.99,74.553,0.30775,209.8,117.44,296.92,0.26412,hexagonal,0,10.56846614,H4
mp-4454,CeCo3B2,CeCo3B2,227.67,291.76,113.4,0.28641,227.51,279.44,107.87,0.29529,227.59,110.63,285.62,0.29083,hexagonal,0,8.462285041,H4
mp-754624,Al2O3,Al2O3,193.22,320.82,131.13,0.22327,186.6,295.57,119.57,0.236,189.91,125.35,308.23,0.22949,trigonal,5.7966,3.679985554,H2
mp-13686,Nb5Si3,Nb5Si3,194.67,306.44,123.8,0.23764,194.42,304.51,122.89,0.23895,194.54,123.35,305.48,0.23829,tetragonal,0,6.967600937,H4
mp-9989,Nb2AsC,Nb2AsC,206.89,308.25,123.13,0.25168,204.89,288.77,114.13,0.26509,205.89,118.63,298.56,0.25832,hexagonal,0,7.756326936,H4
mp-569364,Be22Re,Be22Re,136.67,333.94,152.8,0.092751,136.67,333.51,152.53,0.093275,136.67,152.66,333.73,0.093013,cubic,0,3.35998147,H1a
mp-755175,Al2O3,Al2O3,191.67,321.27,131.6,0.22063,186.44,295.32,119.47,0.236,189.06,125.53,308.35,0.22817,trigonal,5.4938,3.664306545,H2
mp-13100,MoPt3,MoPt3,245.33,281.63,107.6,0.30868,245.33,265.3,100.51,0.31977,245.33,104.06,273.5,0.3142,cubic,0,17.94842042,H1a
mp-1756,ThB6,ThB6,196.33,338.17,139.4,0.21293,196.33,267.7,105.16,0.27275,196.33,122.28,303.78,0.24212,cubic,0,7.097320717,H1a
mp-1475,Be12Mo,Be12Mo,140.67,333.95,151.2,0.10433,140.63,329.69,148.61,0.10926,140.65,149.91,331.83,0.10679,tetragonal,0,3.097001537,H4
mp-864639,Ta2NbOs,Ta2NbOs,244.33,275.99,105.2,0.31174,244.33,271.38,103.19,0.31489,244.33,104.2,273.69,0.31331,cubic,0,15.78175985,H1a
mp-10470,NbSiRh,NbSiRh,221.56,294.84,115.33,0.27821,221.2,281.5,109.29,0.2879,221.38,112.31,288.19,0.28303,orthorhombic,0,8.279822167,H4
mp-865229,Be2NiIr,Be2NiIr,216.33,291.34,114.2,0.27555,216.33,291.29,114.18,0.27558,216.33,114.19,291.32,0.27557,cubic,0,11.18965891,H1a
mp-864640,Ta2NbIr,Ta2NbIr,237.33,280.42,107.6,0.30307,237.33,274.91,105.17,0.30694,237.33,106.39,277.67,0.30501,cubic,0,15.78928536,H1a
mp-867116,BeGaIr2,BeGaIr2,209.67,295.52,116.8,0.26508,209.67,294.29,116.22,0.26606,209.67,116.51,294.91,0.26557,cubic,0,15.06282331,H1a
mp-865442,TiAlOs2,TiAlOs2,243.67,283.2,108.4,0.30629,243.67,263.32,99.752,0.31989,243.67,104.08,273.31,0.31305,cubic,0,13.17558084,H1a
mp-31185,MnAlFe2,MnAlFe2,196.33,317.87,129.2,0.23016,196.33,286.41,113.94,0.25686,196.33,121.57,302.31,0.24337,cubic,0,7.019572678,H1a
mp-569708,TiPt3,TiPt3,234,282.6,108.8,0.29872,234,275.28,105.56,0.30393,234,107.18,278.95,0.30132,trigonal,0,17.02746476,H2
mp-7577,CoSi,CoSi,210.33,293.96,116,0.26707,210.33,293.71,115.88,0.26727,210.33,115.94,293.83,0.26717,cubic,0,6.633920595,H1a
mp-571419,Zr2Al4C5,Zr2Al4C5,183.22,310.55,127.53,0.21751,182.82,308.61,126.62,0.21867,183.02,127.07,309.58,0.21809,trigonal,0,4.336533574,H2
mp-11690,Tc2P3,Tc2P3,182.11,319.85,132.47,0.20728,176.74,303.02,124.78,0.21425,179.43,128.62,311.45,0.2107,monoclinic,0,6.610580736,H4
mp-20892,ZrFeP,ZrFeP,202.56,301.33,120.33,0.25206,202.03,294.86,117.31,0.25675,202.29,118.82,298.1,0.2544,orthorhombic,0,7.004553716,H4
mp-862600,Be2PtRh,Be2PtRh,216,297.32,117,0.27059,216,281.59,109.76,0.28273,216,113.38,289.49,0.27663,cubic,0,11.80608422,H1a
mp-10271,ZnCo3C,ZnCo3C,216.67,298.32,117.4,0.27052,216.67,279.62,108.81,0.28491,216.67,113.11,289.02,0.27767,cubic,0,8.082783775,H1a
mp-27757,Be4B,Be4B,137.56,335.7,153.53,0.093253,137.54,325.65,147.31,0.10537,137.55,150.42,330.71,0.09928,tetragonal,0,1.981767282,H4
mp-11281,Be2V,Be2V,159.78,321.21,137.87,0.16494,159.75,320.59,137.53,0.16553,159.76,137.7,320.9,0.16524,hexagonal,0,3.936240136,H4
mp-661,AlN,AlN,195,302.84,122,0.24116,194.21,301.21,121.31,0.2415,194.6,121.66,302.03,0.24133,hexagonal,4.0536,3.200889713,H1b
mp-864970,MnSiTc2,MnSiTc2,254,283.78,108,0.31379,254,244.6,91.304,0.3395,254,99.652,264.38,0.32652,cubic,0,8.750974107,H1a
mp-20304,RhN2,RhN2,218.56,322.4,128.53,0.25414,200.42,262.9,102.58,0.28138,209.49,115.56,292.83,0.26703,orthorhombic,0,7.630936874,H4
mp-2958,Dy(BC)2,Dy(BC)2,205.33,332.2,135,0.23036,158.11,285.45,119.02,0.19911,181.72,127.01,309.04,0.21657,tetragonal,0,6.758977207,H4
mp-22749,Mn5C2,Mn5C2,221.56,323.96,128.93,0.2563,218.23,247.1,94.219,0.31128,219.89,111.58,286.3,0.283,monoclinic,0,7.697623798,H4
mp-20860,Mn3SnC,Mn3SnC,208.67,296.58,117.4,0.26312,208.67,289.72,114.19,0.2686,208.67,115.79,293.16,0.26585,cubic,0,8.314758136,H1a
mp-1025441,Ta2AlC,Ta2AlC,193.67,305.75,123.6,0.23687,193.65,298.5,120.06,0.2431,193.66,121.83,302.13,0.23998,hexagonal,0,11.45046311,H4
mp-530399,LiAl5O8,LiAl5O8,196,314.95,127.8,0.23219,196,286.2,113.88,0.25663,196,120.84,300.72,0.24429,cubic,5.251,3.517310946,H2
mp-753306,YUO4,YUO4,182.44,176.37,65.867,0.33888,182.19,418.23,187.14,0.1174,182.32,126.51,308.23,0.21823,tetragonal,0,8.423281415,H4
mp-639789,Fe2Re3,Fe2Re3,250.67,266.19,100.6,0.32301,250.67,265.5,100.3,0.32347,250.67,100.45,265.85,0.32324,cubic,0,16.88404424,H1a
mp-4471,ScAlO3,ScAlO3,209.11,299.37,118.67,0.26139,203.69,288.75,114.25,0.26373,206.4,116.46,294.06,0.26254,orthorhombic,4.5931,4.169314923,H2
mp-1714,FeSi2,FeSi2,181.56,309.62,127.33,0.21577,180.13,308.2,126.85,0.21484,180.84,127.09,308.91,0.21531,orthorhombic,0.6976,4.958877558,H2
mp-10857,Tm(BC)2,Tm(BC)2,210.56,329.06,132.73,0.23953,162.44,281.91,116.42,0.21075,186.5,124.58,305.67,0.22683,tetragonal,0,7.201275231,H4
mp-8282,Ti2N,Ti2N,204.11,315.69,127.07,0.24222,203.73,274.66,107.68,0.27531,203.92,117.37,295.44,0.25853,tetragonal,0,4.881545292,H4
mp-977176,NaTcO3,NaTcO3,288,253.35,93.6,0.35338,288,227.08,82.961,0.36859,288,88.28,240.29,0.36094,cubic,0,4.81872416,H1a
mp-2680,LaB6,LaB6,173.67,336.98,143.2,0.1766,173.67,287.28,117.33,0.2243,173.67,130.26,312.62,0.19998,cubic,0,4.717521463,H1a
mp-865490,V2CrFe,V2CrFe,231.67,293.36,113.8,0.28895,231.67,262.16,99.954,0.3114,231.67,106.88,277.9,0.30007,cubic,0,7.348434541,H1a
mp-21313,Mn3GaC,Mn3GaC,208.67,304.2,121,0.25703,208.67,280.22,109.79,0.27618,208.67,115.39,292.3,0.26653,cubic,0,7.230363388,H1a
mp-19830,ErN,ErN,171,313.82,131.4,0.19413,171,313.76,131.37,0.19419,171,131.39,313.79,0.19416,cubic,0.2716,10.56582866,H5
mp-87,Be,Be,121.78,334.77,160.67,0.041825,121.39,333.46,159.98,0.042179,121.59,160.32,334.11,0.042002,hexagonal,0,1.895724397,H4
mp-28786,Zn(BIr)2,Zn(BIr)2,222.33,289.89,113,0.28269,222.33,277.05,107.19,0.29231,222.33,110.1,283.49,0.28748,tetragonal,0,13.73481041,H4
mp-1272,Cr3Ru,Cr3Ru,264.33,257.38,96.2,0.33772,264.33,254.37,94.94,0.33962,264.33,95.57,255.87,0.33867,cubic,0,8.586720288,H1a
mp-20144,NbCrP,NbCrP,212,296.46,117,0.26693,211.99,283.16,110.83,0.27738,211.99,113.92,289.84,0.27214,orthorhombic,0,7.080159294,H4
mp-867927,LiVIr2,LiVIr2,222.67,283.78,110.2,0.28759,222.67,282.35,109.55,0.28866,222.67,109.88,283.07,0.28812,cubic,0,14.06882522,H1a
mp-1700,AlN,AlN,194.67,327.37,134.2,0.21972,194.67,271.88,107.27,0.26723,194.67,120.74,300.15,0.24302,cubic,3.4683,3.192881514,H2