Material_ID,Formula,pretty_formula,KV ,EV ,GV ,PV ,KR ,ER ,GR ,PR ,bulk,shear,young,poisson,csyst,gap,density,y_cla
mp-9194,SmCuSeO,SmCuSeO,79.778,100.31,38.867,0.29044,74.091,91.441,35.325,0.2943,76.935,37.096,95.877,0.2923,tetragonal,1.2944,7.406205466,H1a
mp-11359,Ga2Cu,Ga2Cu,78.444,99.187,38.467,0.28926,76.601,91.772,35.288,0.30033,77.523,36.877,95.491,0.2947,tetragonal,0,7.089287099,H4
mp-715482,MoO2,MoO2,77.889,110.52,43.733,0.26352,72.566,82.981,31.686,0.30941,75.227,37.71,96.933,0.28524,triclinic,0.9616,4.592281544,H5
mvc-15475,AlAgO3,AlAgO3,100,120.1,46.2,0.29983,99.986,36.491,12.678,0.43917,99.993,29.439,80.424,0.36595,cubic,0,4.730922085,H1a
mp-985287,AgAu3,AgAu3,122.44,66.702,23.667,0.40921,122.17,62.555,22.11,0.41466,122.3,22.888,64.633,0.41192,hexagonal,0,16.05359356,H4
mp-30501,Ti2Cd,Ti2Cd,91.667,123.9,48.6,0.27472,91.367,44.235,15.583,0.41931,91.517,32.092,86.199,0.34302,tetragonal,0,6.215938243,H4
mp-10759,GeSe,GeSe,58.333,114.48,48.8,0.17292,58.333,98.791,40.563,0.21774,58.333,44.682,106.78,0.19491,cubic,0.4401,5.536591818,H5
mp-998988,Ti3Ga,Ti3Ga,108,108.71,40.8,0.33224,108,37.913,13.151,0.44149,108,26.975,74.706,0.38471,cubic,0,5.416622345,H1a
mp-29091,Ti(CuS)4,Ti(CuS)4,76.556,97.226,37.733,0.28833,76.219,94.876,36.701,0.29254,76.387,37.217,96.053,0.29043,tetragonal,1.4548,4.546920007,H1a
mp-6917,TmAgSn,TmAgSn,69,103.08,41.2,0.25101,66.296,99.771,39.935,0.24918,67.648,40.567,101.43,0.25011,hexagonal,0,9.300783042,H4
mp-14209,LiYGe,LiYGe,55,111.19,47.8,0.16306,53.769,106.16,45.332,0.17093,54.385,46.566,108.68,0.16694,hexagonal,0,4.52383135,H4
mp-12505,LuAgSn,LuAgSn,74.111,100.12,39.267,0.27485,71.101,96.64,37.943,0.27347,72.606,38.605,98.379,0.27417,hexagonal,0,9.546044961,H4
mp-2222,MnHg,MnHg,113,96.159,35.4,0.35817,113,44.514,15.517,0.43434,113,25.459,71.041,0.39522,cubic,0,11.47903799,H1a
mp-15895,Cu2SiS3,Cu2SiS3,79.556,99.085,38.333,0.29242,79.372,88.664,33.743,0.31382,79.464,36.038,93.917,0.30302,monoclinic,1.6051,3.913865985,H4
mp-862756,PrGa3,PrGa3,62.111,108.48,44.867,0.20891,61.404,100.68,41.034,0.22674,61.758,42.95,104.6,0.21771,hexagonal,0,6.837627684,H4
mp-864976,Mg2AgIr,Mg2AgIr,100.67,112.92,43,0.31304,100.67,43.222,15.129,0.42844,100.67,29.065,79.539,0.36831,cubic,0,8.746261692,H1a
mp-973088,MgInAg2,MgInAg2,44.333,113.69,53,0.072581,44.333,111.4,51.515,0.081212,44.333,52.258,112.55,0.076879,cubic,0,7.566064487,H1a
mp-21135,Pr3InO,Pr3InO,66.333,101.99,41,0.24375,66.333,101.69,40.857,0.24449,66.333,40.929,101.84,0.24412,cubic,0,7.208331569,H1a
mp-560620,BaZr(PO4)2,BaZr(PO4)2,80.222,111.02,43.733,0.26934,63.622,85.817,33.649,0.27519,71.922,38.691,98.424,0.27192,trigonal,3.8363,3.656286651,H2
mp-3208,ZrGeTe,ZrGeTe,72.222,132.99,55.733,0.1931,43.93,79.789,33.321,0.19729,58.076,44.527,106.39,0.19468,tetragonal,0,7.117645126,H4
mp-773525,LiFe3O4,LiFe3O4,146,162.94,62,0.314,28.515,12.755,4.4742,0.42545,87.257,33.237,88.477,0.331,monoclinic,0.7977,5.018470869,H4
mp-972907,Sc2AlAg,Sc2AlAg,79.333,107.53,42.2,0.27409,79.333,79.154,29.675,0.33371,79.333,35.937,93.668,0.30322,cubic,0,4.605365393,H1a
mp-9844,BaAl2B2O7,BaAl2B2O7,94.778,101.65,38.467,0.32125,88.974,68.498,24.968,0.37169,91.876,31.718,85.333,0.3452,trigonal,4.6502,2.934278466,H2
mp-697179,ZrH,ZrH,115,102.69,38,0.35117,113.52,34.398,11.866,0.4495,114.26,24.933,69.727,0.39829,tetragonal,0,5.797300892,H4
mp-4505,La3AlN,La3AlN,62.333,104.49,42.8,0.22063,62.333,103.52,42.315,0.22321,62.333,42.558,104,0.22191,cubic,0,5.72623565,H1a
mp-12277,CaAgP,CaAgP,61.444,104.73,43.067,0.21592,61.351,104.21,42.816,0.21691,61.398,42.942,104.47,0.21641,hexagonal,0.1935,4.889479822,H1a
mp-867899,Sm2IrRh,Sm2IrRh,108,76.3,27.6,0.38225,108,71.803,25.843,0.38919,108,26.722,74.057,0.38571,cubic,0,11.48550506,H1a
mp-864659,Nd2NiIr,Nd2NiIr,103.33,78.05,28.4,0.37411,103.33,76.597,27.824,0.37646,103.33,28.112,77.324,0.37528,cubic,0,10.09775188,H1a
mp-7899,BaCdO2,BaCdO2,80.444,94.132,36.067,0.30497,80.277,91.559,34.949,0.30991,80.36,35.508,92.848,0.30743,orthorhombic,0.9754,6.593262899,H2
mp-21471,LiFeAs,LiFeAs,69,104.75,42,0.24699,66.65,96.597,38.379,0.25845,67.825,40.19,100.68,0.25259,tetragonal,0,5.211400491,H4
mp-8487,CaSbPt,CaSbPt,84.222,93.918,35.733,0.31415,79.794,89.575,34.113,0.3129,82.008,34.923,91.746,0.31354,orthorhombic,0,8.662414232,H4
mp-8090,Cu2P2O7,Cu2P2O7,92.556,129.97,51.333,0.26596,40.536,72.235,30.023,0.203,66.546,40.678,101.38,0.24609,monoclinic,0,3.923853042,H4
mp-569451,Sb2Pd5,Sb2Pd5,128,33.78,11.6,0.45602,128.24,84.053,30.218,0.39076,128.12,20.909,59.491,0.42261,hexagonal,0,10.56463059,H4
mp-864780,PaAlAu2,PaAlAu2,124.33,64.992,23,0.41288,124.33,59.435,20.923,0.42033,124.33,21.962,62.221,0.41659,cubic,0,13.06339268,H1a
mp-348,TmPd,TmPd,95,82.899,30.6,0.35456,95,82.88,30.592,0.3546,95,30.596,82.89,0.35458,cubic,0,10.98683074,H1a
mp-21484,PuGe3,PuGe3,59.667,106.34,44.2,0.20296,59.667,103.97,42.978,0.20958,59.667,43.589,105.16,0.20626,cubic,0,9.833070354,H1a
mp-7880,Sr(SiAg)2,Sr(SiAg)2,60.444,105.97,43.867,0.20782,60.427,103.51,42.612,0.21451,60.436,43.24,104.74,0.21115,tetragonal,0,5.786011765,H4
mp-10405,Yb(AlSi)2,Yb(AlSi)2,64.667,105.59,43,0.22785,62.155,100.55,40.86,0.23039,63.411,41.93,103.07,0.22909,trigonal,0,4.473834282,H2
mp-864932,Mg2AgPt,Mg2AgPt,90.333,105.48,40.4,0.30539,90.333,65.417,23.714,0.3793,90.333,32.057,85.998,0.34133,cubic,0,8.535652781,H1a
mp-1720,SmRu2,SmRu2,152,63.508,22.2,0.43036,152,19.65,6.6456,0.47845,152,14.423,41.942,0.45401,cubic,0,10.52677475,H1a
mp-19871,PbAu2,PbAu2,75.667,95.443,37,0.28977,75.667,95.443,37,0.28977,75.667,37,95.443,0.28977,cubic,0,14.82094229,H1a
mp-973636,Lu2ZnGa,Lu2ZnGa,68.333,109.89,44.6,0.23197,68.333,89.599,34.959,0.28147,68.333,39.78,99.945,0.25623,cubic,0,9.448016224,H1a
mp-1754,UHg2,UHg2,76.889,95.953,37.133,0.29201,76,93.833,36.251,0.29423,76.444,36.692,94.894,0.29311,hexagonal,0,15.03913202,H4
mp-862259,Sc3Al,Sc3Al,64.333,103.08,41.8,0.23296,64.324,101.48,41.017,0.23706,64.329,41.408,102.28,0.23501,hexagonal,0,3.083513198,H4
mp-20111,EuAl2,EuAl2,60.667,104.35,43,0.21333,60.667,104.28,42.966,0.21352,60.667,42.983,104.31,0.21343,cubic,0,4.988961795,H1a
mp-2172,AlAs,AlAs,69.667,103.25,41.2,0.253,69.667,94.805,37.231,0.27319,69.667,39.216,99.06,0.26301,cubic,1.6871,3.590699212,H5
mp-505259,SmFePO,SmFePO,72.556,100.37,39.533,0.26944,70.781,95.173,37.297,0.2759,71.668,38.415,97.775,0.27262,tetragonal,0,6.395943931,H4
mp-865795,LiSc2Ru,LiSc2Ru,88,88,33,0.33333,88,86.371,32.314,0.33642,88,32.657,87.186,0.33487,cubic,0,4.681770408,H1a
mp-867285,LiTb2Ir,LiTb2Ir,84,90.34,34.2,0.32075,84,89.34,33.771,0.32274,84,33.985,89.84,0.32175,cubic,0,10.02372715,H1a
mp-9248,Cu2SiS3,Cu2SiS3,78.778,95.226,36.667,0.29853,78.527,91.358,34.974,0.3061,78.652,35.82,93.297,0.3023,orthorhombic,1.3219,3.892855126,H2
mp-863715,Pm2IrAu,Pm2IrAu,102.33,77.986,28.4,0.37299,102.33,76.535,27.824,0.37535,102.33,28.112,77.261,0.37417,cubic,0,12.01884812,H1a
mp-4519,KPrO2,KPrO2,69.556,108.06,43.533,0.24108,64.326,92.949,36.909,0.25917,66.941,40.221,100.53,0.24971,trigonal,3.7022,4.745768223,H2
mp-9473,Ba(NiP)2,Ba(NiP)2,74.889,102.15,40.133,0.27266,74.732,89.062,34.218,0.30138,74.811,37.176,95.679,0.28684,tetragonal,0,5.67068201,H4
mp-1025313,TiGa5Ni,TiGa5Ni,107.89,81.192,29.533,0.37458,105.2,67.256,24.133,0.39345,106.54,26.833,74.265,0.38383,tetragonal,0,6.859747281,H4
mp-865866,LiZrPt2,LiZrPt2,139.67,67.562,23.8,0.41938,139.67,32.687,11.186,0.46099,139.67,17.493,50.376,0.43988,cubic,0,12.12196776,H1a
mp-11649,Ca3SiO,Ca3SiO,58.333,105.48,44,0.19863,58.283,105.14,43.834,0.19933,58.308,43.917,105.31,0.19898,orthorhombic,0.1866,2.580849714,H2
mp-1018015,Ti2MnGe,Ti2MnGe,114,120.71,45.6,0.32353,114,10.807,3.6408,0.4842,114,24.62,68.901,0.39927,cubic,0,6.587640042,H1a
mp-1007924,CrCu2Si,CrCu2Si,126.33,110.99,41,0.35357,126.33,3.697,1.2364,0.49512,126.33,21.118,60.011,0.42083,cubic,0,6.819902117,H1a
mp-961668,AlVPt,AlVPt,123.67,62.305,22,0.41603,123.67,61.541,21.714,0.41706,123.67,21.857,61.923,0.41655,cubic,0,8.983501643,H1a
mp-2563,CeSe,CeSe,55,124.09,55.2,0.12398,55,88.13,35.74,0.23294,55,45.47,106.94,0.17594,cubic,0,6.992020302,H1a
mp-7973,RbNdO2,RbNdO2,69,106.81,43,0.242,66.2,92.977,36.723,0.26592,67.6,39.862,99.941,0.2536,trigonal,3.4692,5.62513842,H2
mvc-11196,AgN,AgN,121.33,89.761,32.6,0.3767,121.33,35.927,12.383,0.45065,121.33,22.492,63.548,0.41271,cubic,0,8.522483687,H1a
mp-861,Hf2Ni,Hf2Ni,131.44,64.84,22.867,0.41779,127.99,49.967,17.411,0.43493,129.72,20.139,57.444,0.42619,tetragonal,0,12.84854621,H4
mp-10078,TbTiGe,TbTiGe,83.556,107.77,41.933,0.28503,83.014,71.047,26.171,0.35736,83.285,34.052,89.904,0.32009,tetragonal,0,7.229041986,H4
mp-18849,Fe2P2O7,Fe2P2O7,110.33,131.67,50.6,0.3011,43.708,56.247,21.877,0.28552,77.021,36.239,93.977,0.29664,triclinic,3.7487,3.693942526,H5
mp-568430,BaRh2,BaRh2,94.667,82.382,30.4,0.35496,94.667,82.064,30.27,0.35552,94.667,30.335,82.223,0.35524,cubic,0,9.000728161,H1a
mp-2062,LaSi2,LaSi2,78.778,96.572,37.267,0.29569,76.182,90.711,34.847,0.30155,77.48,36.057,93.644,0.29856,tetragonal,0,4.96390218,H4
mp-1047,Ca3N2,Ca3N2,72,98.244,38.6,0.27258,71.225,96.447,37.843,0.27431,71.612,38.221,97.345,0.27344,trigonal,0.795,2.666963831,H2
mp-2697,SrO2,SrO2,75,104.04,41,0.2688,67.281,91.214,35.797,0.27405,71.141,38.399,97.63,0.27127,tetragonal,2.9058,4.561601011,H4
mp-1024955,PrNiSb,PrNiSb,85.222,93.129,35.333,0.31787,78.673,88.328,33.639,0.31288,81.948,34.486,90.731,0.31547,hexagonal,0,7.686397915,H4
mp-8407,Li3LaP2,Li3LaP2,56.889,112.63,48.133,0.17002,56.886,98.746,40.781,0.21069,56.887,44.457,105.81,0.19001,trigonal,0.6161,3.442518755,H2
mp-755298,Li4NbO4,Li4NbO4,72.889,103.01,40.733,0.26446,72.785,89.969,34.764,0.29399,72.837,37.749,96.564,0.27904,tetragonal,0,3.076738803,H4
mp-1403,Sm2S3,Sm2S3,76.889,95.508,36.933,0.29297,76.101,92.834,35.797,0.29669,76.495,36.365,94.172,0.29482,orthorhombic,0.7445,5.722566655,H2
mp-3934,Cu3PS4,Cu3PS4,78.778,94.776,36.467,0.29949,78.229,90.958,34.817,0.30621,78.503,35.642,92.871,0.30283,orthorhombic,1.3616,4.153629307,H2
mp-19120,MgCrO4,MgCrO4,67.889,104.73,42.133,0.24288,60.074,98.782,40.288,0.22594,63.982,41.211,101.78,0.23487,orthorhombic,2.4385,3.052338959,H2
mp-505781,MnGePd2,MnGePd2,135.67,86.418,31,0.39384,135.67,17.196,5.814,0.47887,135.67,18.407,52.832,0.4351,cubic,0,9.385194516,H1a
mp-983555,Er2PdAu,Er2PdAu,94,82.814,30.6,0.35317,94,82.096,30.306,0.35444,94,30.453,82.455,0.3538,cubic,0,12.05857602,H1a
mp-567712,PrCoGe,PrCoGe,77,101.41,39.6,0.28049,71.556,89.533,34.664,0.29146,74.278,37.132,95.484,0.28575,tetragonal,0,7.490171766,H4
mp-1140,NdCu5,NdCu5,109.11,76.021,27.467,0.38388,101.99,72.769,26.345,0.38108,105.55,26.906,74.396,0.38253,hexagonal,0,8.263727547,H4
mp-755552,LiYS2,LiYS2,67.556,105.06,42.333,0.24082,64.876,95.704,38.155,0.25413,66.216,40.244,100.39,0.2473,tetragonal,0.3793,3.24314206,H1a
mp-972866,Sc2PdAu,Sc2PdAu,124.67,75.024,26.8,0.3997,124.67,46.071,16.014,0.43841,124.67,21.407,60.745,0.41879,cubic,0,8.557768311,H1a
mp-978270,MgZr3,MgZr3,79.667,92.044,35.2,0.30744,79.658,91.907,35.141,0.3077,79.662,35.17,91.976,0.30757,hexagonal,0,5.461997474,H4
mp-20269,MnGaPt,MnGaPt,144.67,46.293,16,0.44667,144.67,46.023,15.903,0.44698,144.67,15.952,46.158,0.44682,cubic,0,10.62308836,H1a
mp-21399,CeMnGe,CeMnGe,84.667,100.52,38.6,0.30212,82.906,77.568,28.856,0.34406,83.786,33.728,89.213,0.32254,tetragonal,0,7.470399645,H4
mp-973143,ScZn3,ScZn3,86.667,102.65,39.4,0.30261,86.667,71.18,26.109,0.36312,86.667,32.755,87.27,0.33217,cubic,0,6.149155353,H1a
mp-12521,SrNi3Ge2,SrNi3Ge2,91.889,93.957,35.333,0.32958,86.117,77.339,28.637,0.35032,89.003,31.985,85.691,0.33954,hexagonal,0,6.69465723,H4
mp-30884,YZn3,YZn3,71.667,99.894,39.4,0.26769,71.316,94.143,36.775,0.27999,71.491,38.087,97.031,0.27379,orthorhombic,0,6.346145343,H4
mp-20913,UGeS,UGeS,92.222,85.887,31.933,0.34478,90.808,81.961,30.365,0.34957,91.515,31.149,83.926,0.34715,tetragonal,0,9.574090312,H4
mp-24390,CaPHO4,CaPHO4,72.111,99.703,39.267,0.26956,71.094,94.149,36.798,0.27929,71.603,38.032,96.934,0.27437,triclinic,5.6626,2.819676765,H5
mp-558798,BiPO4,BiPO4,70,115.21,47,0.22568,67.591,81.169,31.222,0.29985,68.796,39.111,98.641,0.26103,monoclinic,3.9722,6.047761942,H2
mp-12782,YbAl2Ni,YbAl2Ni,64.222,112.83,46.733,0.20718,52.538,96.316,40.318,0.19446,58.38,43.526,104.59,0.20142,orthorhombic,0,6.607253088,H4
mp-13090,YMgAl,YMgAl,57.333,107.76,45.4,0.18675,57.291,102.48,42.632,0.20188,57.312,44.016,105.13,0.19427,hexagonal,0,3.262014206,H4
mp-864622,Nd2IrPd,Nd2IrPd,100.33,77.854,28.4,0.37067,100.33,77.601,28.299,0.37109,100.33,28.349,77.728,0.37088,cubic,0,10.61936577,H1a
mp-999439,Nb3Cr,Nb3Cr,122.33,83.711,30.2,0.38595,122.33,39.555,13.676,0.44611,122.33,21.938,62.102,0.41539,cubic,0,8.232900742,H1a
mp-3346,HoZrSb,HoZrSb,75.333,101.52,39.8,0.2754,74.915,87.412,33.477,0.30553,75.124,36.639,94.546,0.29025,tetragonal,0,8.299528603,H4
mp-6094,Ca2MgSi2O7,Ca2MgSi2O7,85.667,96.112,36.6,0.31301,84.92,79.538,29.592,0.3439,85.293,33.096,87.917,0.32821,tetragonal,4.5058,2.865338749,H4
mp-2334,DyCu,DyCu,78.333,92.749,35.6,0.30266,78.333,92.181,35.349,0.30387,78.333,35.474,92.465,0.30327,cubic,0,9.025029696,H1a
mp-7276,ScUS3,ScUS3,78.667,101.29,39.4,0.2854,78.365,83.081,31.392,0.3233,78.516,35.396,92.315,0.30404,orthorhombic,0,6.072417836,H4
mp-865406,Lu2ZnAu,Lu2ZnAu,85,91.863,34.8,0.31988,85,84.145,31.515,0.33501,85,33.157,88.026,0.3274,cubic,0,11.72936185,H1a
mp-1971,HoCu,HoCu,73.333,95.897,37.4,0.28205,73.333,95.281,37.119,0.28345,73.333,37.26,95.589,0.28275,cubic,0,9.2535428,H1a
mp-1029448,Li5OsN4,Li5OsN4,69.667,100.3,39.8,0.26005,69.415,95.541,37.597,0.2706,69.541,38.698,97.929,0.26529,orthorhombic,0,4.209125154,H4
mp-20201,NdZnSn,NdZnSn,61.333,109.24,45.4,0.20314,56.614,98.852,40.882,0.20899,58.974,43.141,104.05,0.20594,hexagonal,0,7.274712587,H4
mp-1837,TbCu,TbCu,83.333,89.323,33.8,0.32135,83.333,88.806,33.578,0.32239,83.333,33.689,89.065,0.32187,cubic,0,8.756728345,H1a
mp-8978,CsNbN2,CsNbN2,95.333,86.34,32,0.34906,95.333,75.467,27.582,0.36806,95.333,29.791,80.942,0.35849,cubic,1.5207,4.62197832,H5
mp-20245,CeFeSi,CeFeSi,92.889,115.64,44.733,0.29252,82.711,54.612,19.645,0.38995,87.8,32.189,86.052,0.33665,tetragonal,0,6.792241419,H4
mp-2226,DyPd,DyPd,92.333,83.154,30.8,0.3499,92.333,82.781,30.647,0.35058,92.333,30.723,82.968,0.35024,cubic,0,10.30574074,H1a
mp-4895,UTeAs,UTeAs,69.667,101.15,40.2,0.25803,68.085,95.292,37.614,0.26673,68.876,38.907,98.225,0.26231,tetragonal,0,9.791765515,H4
mp-972861,Sc2TlTc,Sc2TlTc,69,105.99,42.6,0.24399,69,90.028,35.097,0.28254,69,38.849,98.13,0.26297,cubic,0,8.25177246,H1a
mp-1066,YbN,YbN,94.333,83.331,30.8,0.35277,94.333,79.66,29.303,0.35926,94.333,30.051,81.5,0.35601,cubic,0,10.38460105,H1a
mp-1018895,PrFeSi,PrFeSi,70,118,48.4,0.21904,51.036,87.863,36.215,0.21307,60.518,42.308,102.94,0.21651,tetragonal,0,6.364388258,H4
mp-30872,ThSn2,ThSn2,72.111,106.91,42.667,0.2529,66.67,88.455,34.583,0.27888,69.391,38.625,97.74,0.26524,orthorhombic,0,9.10098539,H4
mp-474,ErFe2,ErFe2,76.667,95.618,37,0.29213,76.636,90.655,34.791,0.30285,76.652,35.896,93.147,0.29747,cubic,0,9.858407721,H1a
mp-436,SmRh,SmRh,95,81.429,30,0.35714,95,80.375,29.571,0.35899,95,29.786,80.902,0.35807,cubic,0,9.764581654,H1a
mp-754475,Tm2SeO2,Tm2SeO2,103.89,118.73,45.333,0.30952,102.47,26.891,9.2327,0.45626,103.18,27.283,75.219,0.3785,tetragonal,2.0025,8.728808542,H4
mp-11261,YAu,YAu,86.333,86.866,32.6,0.3323,86.333,86.648,32.508,0.33273,86.333,32.554,86.757,0.33252,cubic,0,10.04366255,H1a
mp-29638,BiTePt,BiTePt,86,87.773,33,0.3299,86,86.152,32.314,0.33304,86,32.657,86.964,0.33147,cubic,0,11.41331406,H1a
mp-22779,YbSnPt,YbSnPt,81.444,91.537,34.867,0.31268,80.587,88.912,33.778,0.31612,81.016,34.322,90.226,0.31439,hexagonal,0,12.23982927,H4
mp-594,NiS,NiS,136.11,62.266,21.867,0.42376,136.07,40.588,13.993,0.45028,136.09,17.93,51.527,0.4369,hexagonal,0,5.680562634,H4
mp-8881,AlAs,AlAs,67.667,100.25,40,0.25309,67.642,97.039,38.48,0.2609,67.654,39.24,98.648,0.25698,hexagonal,1.6862,3.590981674,H1a
mp-4300,Yb2Si2O7,Yb2Si2O7,92.111,90.983,34.067,0.33537,90.86,75.281,27.638,0.36191,91.486,30.852,83.204,0.34842,monoclinic,0,5.580786075,H4
mp-328,Zr2Ni,Zr2Ni,123,66.544,23.6,0.40983,121.08,56.806,19.977,0.4218,122.04,21.788,61.694,0.41575,tetragonal,0,7.189329356,H4
mp-11285,Ca3(GaNi)4,Ca3(GaNi)4,77.333,92.592,35.6,0.30045,77.333,92.558,35.585,0.30052,77.333,35.592,92.575,0.30048,cubic,0,5.201688484,H1a
mp-1029550,Ca2CrN3,Ca2CrN3,94.778,103.97,39.467,0.31717,92.872,57.802,20.699,0.39627,93.825,30.083,81.534,0.35517,orthorhombic,0,3.452000389,H4
mp-8891,K2Zr(BO3)2,K2Zr(BO3)2,88,120.55,47.4,0.27168,60.136,68.291,26.051,0.31073,74.068,36.725,94.549,0.28725,trigonal,3.4066,3.208382125,H2
mp-1029407,NaCrN2,NaCrN2,75.889,97.547,37.933,0.28577,75.882,89.1,34.156,0.3043,75.885,36.045,93.354,0.29497,tetragonal,0,3.146804494,H4
mp-21418,MnSnPt,MnSnPt,108,73.233,26.4,0.38699,108,69.842,25.083,0.39222,108,25.741,71.541,0.3896,cubic,0,10.16974219,H1a
mp-867251,LiZn2Pt,LiZn2Pt,103.67,117.48,44.8,0.31113,103.67,26.894,9.2308,0.45676,103.67,27.015,74.569,0.38011,cubic,0,9.667523626,H1a
mp-2462,PrCu5,PrCu5,105.33,79.183,28.8,0.37471,93.893,75.596,27.674,0.36581,99.613,28.237,77.398,0.3705,hexagonal,0,8.128768477,H4
mp-2666,CrSb2,CrSb2,85,104.18,40.2,0.29573,84.939,69.701,25.565,0.36323,84.97,32.882,87.376,0.32861,tetragonal,0,7.982512899,H4
mp-541047,ZrAlPd2,ZrAlPd2,147.33,45.764,15.8,0.44823,147.33,40.34,13.869,0.45437,147.33,14.834,43.058,0.45129,cubic,0,8.143435842,H1a
mp-12693,Mg2Rh,Mg2Rh,74.556,117.61,47.533,0.23709,56.814,81.475,32.306,0.26099,65.685,39.92,99.585,0.24732,tetragonal,0,4.842911429,H4
mp-22682,In2Pt,In2Pt,95,81.429,30,0.35714,95,79.318,29.143,0.36085,95,29.571,80.375,0.35899,cubic,0,10.37288408,H1a
mp-4854,NdScGe,NdScGe,64.444,102.84,41.667,0.23404,64.07,97.632,39.177,0.24603,64.257,40.422,100.25,0.23999,tetragonal,0,5.800444994,H4
mp-1025437,CeBi2SeO4,CeBi2SeO4,100,104.01,39.2,0.32665,95.585,51.309,18.188,0.41054,97.793,28.694,78.413,0.36636,tetragonal,0.4242,8.542909801,H1a
mp-567807,TmZrSb,TmZrSb,78.444,97.409,37.667,0.29304,77.028,86.297,32.856,0.31328,77.736,35.261,91.89,0.30299,tetragonal,0,8.510051884,H4
mp-20959,Ce2InGe2,Ce2InGe2,67.222,103.73,41.733,0.24281,66.958,93.211,36.756,0.26798,67.09,39.244,98.523,0.25525,tetragonal,0,7.317502962,H4
mp-625055,AlHO2,AlHO2,97.333,163.88,67.2,0.21938,48.43,19.461,6.7903,0.43303,72.882,36.995,94.924,0.28293,monoclinic,4.6729,2.920155223,H2
mp-1748,NdS,NdS,81,112.62,44.4,0.26827,81,64.917,23.754,0.36643,81,34.077,89.658,0.31552,cubic,0,6.147255994,H1a
mp-1018724,HoCuSn,HoCuSn,63.667,112.77,46.8,0.20479,48.705,96.252,41.111,0.17063,56.186,43.956,104.59,0.18974,hexagonal,0,8.914081745,H4
mvc-2949,SbO2,SbO2,73.778,103.49,40.867,0.26621,71.692,86.212,33.169,0.29958,72.735,37.018,94.947,0.28244,orthorhombic,1.5445,4.767743636,H2
mp-554252,K2NaCrF6,K2NaCrF6,78.333,91.389,35,0.30556,78.333,91.29,34.957,0.30577,78.333,34.978,91.339,0.30566,cubic,4.2623,2.961003108,H2
mp-12884,Hf5Te4,Hf5Te4,76.333,98.216,38.2,0.28555,76.333,86.905,33.164,0.31025,76.333,35.682,92.615,0.29778,tetragonal,0,10.61996333,H4
mp-1018689,ErZnIn,ErZnIn,66.111,104.12,42.067,0.23752,62.678,95.758,38.446,0.24537,64.395,40.256,99.942,0.24133,hexagonal,0,8.577884599,H4
mp-978304,Mg3Ta,Mg3Ta,63.667,110.04,45.4,0.21193,63.667,90.216,35.691,0.26383,63.667,40.546,100.34,0.23734,cubic,0,5.305255004,H1a
mp-7112,Sr2Cu3(SO)2,Sr2Cu3(SO)2,59.667,104.79,43.4,0.20728,56.704,101.98,42.481,0.20026,58.185,42.94,103.39,0.20385,tetragonal,0,5.381649916,H4
mp-17701,Sr2NbN3,Sr2NbN3,72.222,98.577,38.733,0.27251,69.937,93.09,36.416,0.27816,71.079,37.575,95.837,0.27528,monoclinic,2.299,4.729103984,H2
mp-865560,Y2AlZn,Y2AlZn,62.333,108.03,44.6,0.21114,62.333,93.695,37.493,0.24948,62.333,41.047,100.98,0.23001,cubic,0,4.800594297,H1a
mp-862374,CdInPd2,CdInPd2,113.33,99.618,36.8,0.3535,113.33,32.159,11.069,0.45271,113.33,23.934,67.081,0.40135,cubic,0,10.25385752,H1a
mp-3718,ThTeO,ThTeO,107.56,116.93,44.333,0.3188,61.373,57.078,21.219,0.345,84.464,32.776,87.066,0.3282,tetragonal,0.4557,9.459183802,H1a