Material_ID,Formula,pretty_formula,KV ,EV ,GV ,PV ,KR ,ER ,GR ,PR ,bulk,shear,young,poisson,csyst,gap,density,y_cla
mp-1057,Al3Ni2,Al3Ni2,130.22,211.32,85.933,0.22954,130.15,209.64,85.113,0.23154,130.19,85.523,210.48,0.23054,trigonal,0,4.767798907,H2
mp-2458,TbO2,TbO2,142.33,5.972,2,0.49301,142.33,347.72,159.09,0.092834,142.33,80.545,203.29,0.26196,cubic,0,7.740046922,H1a
mp-8896,Sr2B4Rh5,Sr2B4Rh5,149.11,203.3,79.867,0.27276,146.05,196.82,77.162,0.27539,147.58,78.515,200.06,0.27406,orthorhombic,0,7.576074525,H4
mp-1025372,Y2Cr2C3,Y2Cr2C3,161.56,201.41,77.933,0.29221,160.39,181.51,69.203,0.31139,160.97,73.568,191.53,0.3017,monoclinic,0,5.553901087,H4
mp-971836,Zn2NiIr,Zn2NiIr,207.33,196.96,73.4,0.34167,207.33,121.92,43.481,0.40199,207.33,58.44,160.26,0.37117,cubic,0,12.02932245,H1a
mp-755453,MnP4,MnP4,131.44,236.76,98.667,0.1998,128.58,182.85,72.389,0.26299,130.01,85.528,210.44,0.23024,monoclinic,0,3.949466461,H4
mp-1095534,C,C,228.89,426.97,179.53,0.1891,5.9062,7.4618,2.8934,0.28944,117.4,91.213,217.35,0.19143,tetragonal,0.6566,1.868033438,H1a
mp-977427,Zn2PtRh,Zn2PtRh,192.67,188.75,70.6,0.33673,192.67,151.43,55.308,0.369,192.67,62.954,170.31,0.35267,cubic,0,12.52448579,H1a
mp-771,MnAl,MnAl,143.33,222.04,89.4,0.24182,138.19,185.71,72.771,0.27601,140.76,81.086,204.07,0.25837,tetragonal,0,5.127964867,H4
mp-864655,PaCo3,PaCo3,173,185.51,70.2,0.32128,173,181.39,68.435,0.32525,173,69.317,183.45,0.32327,cubic,0,12.30310177,H1a
mp-4200,ScPO4,ScPO4,156.89,215.85,84.933,0.2707,141.8,181.38,70.476,0.28682,149.35,77.704,198.66,0.2783,tetragonal,4.4951,3.585444648,H4
mp-1025165,Zr(VGa2)2,Zr(VGa2)2,127.67,217.84,89.6,0.21562,127.23,205.45,83.459,0.23087,127.45,86.529,211.68,0.22318,tetragonal,0,7.144804763,H4
mp-485,ZrNi3,ZrNi3,170.67,187.06,71,0.31732,170.36,182.94,69.242,0.32103,170.52,70.121,185,0.31917,hexagonal,0,8.426584523,H4
mp-866112,HoNbRu2,HoNbRu2,177,188.81,71.4,0.32221,177,172.4,64.439,0.33767,177,67.919,180.65,0.32989,cubic,0,10.89370064,H1a
mp-3437,Ce(CoSi)2,Ce(CoSi)2,134.44,217.66,88.467,0.23017,134.43,197.32,78.592,0.25536,134.44,83.53,207.59,0.24264,tetragonal,0,6.866647731,H4
mp-568992,ZrIr,ZrIr,187.33,181.03,67.6,0.33895,185.98,167.12,61.884,0.35024,186.66,64.742,174.1,0.34455,orthorhombic,0,12.59589956,H4
mp-1278,Zr2Si,Zr2Si,126.11,214.31,88.067,0.21677,126.06,210.16,85.981,0.22215,126.09,87.024,212.24,0.21945,tetragonal,0,5.972090741,H4
mp-18829,Sr2ZnMoO6,Sr2ZnMoO6,178.67,181.51,68.2,0.33069,178.67,177.19,66.379,0.33471,178.67,67.29,179.35,0.33269,cubic,2.3708,5.515215547,H2
mp-5377,YTaO4,YTaO4,186.44,184.9,69.267,0.33471,177.71,169.17,63.062,0.34134,182.08,66.164,177.05,0.33794,monoclinic,4.0311,7.289825775,H2
mp-10398,HoNi4B,HoNi4B,152.56,196.71,76.533,0.2851,152.54,195.86,76.149,0.28601,152.55,76.341,196.28,0.28555,hexagonal,0,9.238511236,H4
mp-1029834,HfMgN2,HfMgN2,158.22,223.42,88.333,0.26465,154.36,163.06,61.582,0.32394,156.29,74.958,193.88,0.29325,orthorhombic,1.7471,7.258144529,H2
mp-770771,SrSc2O4,SrSc2O4,141.33,205.29,81.6,0.25791,139.85,201.93,80.172,0.25935,140.59,80.886,203.61,0.25863,orthorhombic,3.4364,4.512476367,H2
mp-30481,CaPt5,CaPt5,168.56,189.84,72.333,0.31228,164.45,184.65,70.323,0.31287,166.5,71.328,187.25,0.31257,hexagonal,0,15.07636395,H4
mp-755089,ZrO2,ZrO2,151.56,205.25,80.533,0.27429,151.47,188.34,72.846,0.29275,151.51,76.69,196.86,0.28345,orthorhombic,3.9644,5.504001558,H2
mp-11533,ZrZnNi4,ZrZnNi4,167,190.23,72.6,0.31015,167,183.53,69.686,0.31684,167,71.143,186.89,0.31348,cubic,0,8.345601227,H1a
mp-7559,YNi4B,YNi4B,156.22,194.7,75.333,0.29228,156,192.97,74.575,0.29383,156.11,74.954,193.84,0.29305,hexagonal,0,7.44981788,H4
mp-573563,Sm(CoP)2,Sm(CoP)2,111.78,227.27,97.867,0.16113,108.05,213.58,91.231,0.17054,109.91,94.549,220.44,0.16573,tetragonal,0,7.600121483,H4
mp-50,Ta,Ta,193.67,170.02,62.8,0.35368,193.67,167.66,61.834,0.35572,193.67,62.317,168.84,0.3547,cubic,0,16.38780395,H1a
mp-865792,BeSiNi2,BeSiNi2,197.67,218.89,83.2,0.31544,197.67,109.09,38.738,0.40802,197.67,60.969,165.85,0.36016,cubic,0,6.402183206,H1a
mp-4177,Dy(SiRu)2,Dy(SiRu)2,145.22,204.33,80.733,0.26549,143.67,197.07,77.501,0.27139,144.45,79.117,200.71,0.26842,tetragonal,0,8.349895662,H4
mp-36864,Li2TiO3,Li2TiO3,132.67,227.34,93.6,0.2144,113.45,199.03,82.408,0.20761,123.06,88.004,213.19,0.21126,monoclinic,2.418,3.418628967,H2
mp-1016853,CaVO3,CaVO3,159.67,212.66,83.2,0.27801,159.67,168.66,63.697,0.32394,159.67,73.448,191.05,0.30057,cubic,0,4.107568072,H1a
mp-12862,LuTaO4,LuTaO4,160.78,197.56,76.267,0.2952,156.55,185.67,71.284,0.30233,158.67,73.775,191.63,0.29871,monoclinic,4.0899,9.679923978,H2
mp-559998,Cs(OsO3)2,Cs(OsO3)2,133.33,208.67,84.2,0.23916,133.33,205.68,82.744,0.24289,133.33,83.472,207.18,0.24102,cubic,0,7.450576605,H1a
mp-1018726,HfVGe,HfVGe,146.67,227.45,91.6,0.24153,145.84,169.76,64.991,0.306,146.25,78.295,199.32,0.27286,tetragonal,0,10.07849099,H4
mp-5022,Er(SiRu)2,Er(SiRu)2,149.56,201.81,79.133,0.2751,147.86,193.67,75.55,0.28171,148.71,77.342,197.74,0.27838,tetragonal,0,8.523662722,H4
mp-4072,Sm(SiRu)2,Sm(SiRu)2,141.78,206.8,82.267,0.2569,138.2,199.34,79.13,0.2596,139.99,80.698,203.07,0.25823,tetragonal,0,7.879569774,H4
mp-25417,LiTiO2,LiTiO2,135.22,217.21,88.133,0.23228,130.32,197.4,79.113,0.24755,132.77,83.623,207.34,0.23973,trigonal,0,3.904592767,H2
mp-680932,OsPbO3,OsPbO3,160,194.59,75,0.2973,160,186.23,71.299,0.30601,160,73.15,190.43,0.30164,cubic,0,10.46354096,H1a
mp-1335,VFe,VFe,196,169.24,62.4,0.35609,196,163.33,60,0.36111,196,61.2,166.29,0.3586,cubic,0,7.38705214,H1a
mp-19955,Co2CuGe2,Co2CuGe2,161.22,198.68,76.733,0.29461,161.07,180.42,68.689,0.31331,161.15,72.711,189.61,0.30389,orthorhombic,0,8.370352795,H4
mp-4013,Nd(SiRu)2,Nd(SiRu)2,143.22,207.28,82.333,0.25879,136.6,198.47,78.893,0.25785,139.91,80.613,202.88,0.25833,tetragonal,0,7.618843964,H4
mp-2337,HfCo2,HfCo2,156.33,193.09,74.6,0.29415,156.33,192.19,74.199,0.29511,156.33,74.399,192.64,0.29463,cubic,0,12.08938899,H1a
mp-25053,Sr2NiMoO6,Sr2NiMoO6,169.67,184.61,70,0.31865,169.67,183.32,69.444,0.31992,169.67,69.722,183.97,0.31929,cubic,2.3395,5.567566673,H2
mp-567871,Nb5Si3,Nb5Si3,185.56,194.86,73.533,0.32498,185.38,151.17,55.411,0.36409,185.47,64.472,173.33,0.34424,hexagonal,0,6.896528988,H4
mp-24150,LiNd2HO3,LiNd2HO3,127.33,213.38,87.4,0.22071,126.46,207.31,84.492,0.22679,126.9,85.946,210.35,0.22373,orthorhombic,1.8754,6.911765117,H2
mp-656887,Ni3O4,Ni3O4,147.11,202.45,79.667,0.27063,144.16,195.97,76.945,0.27343,145.63,78.306,199.21,0.27202,orthorhombic,0.3954,5.600675622,H2
mp-865927,AcTiO3,AcTiO3,165,192.67,73.8,0.30538,165,180.87,68.65,0.31731,165,71.225,186.8,0.31132,cubic,0,8.284647698,H1a
mp-865166,HfPd5,HfPd5,169.11,191.6,73.067,0.31116,169.1,176.42,66.517,0.32612,169.1,69.792,184.05,0.3186,orthorhombic,0,12.27719954,H4
mp-18782,LiFeO2,LiFeO2,135.44,221.98,90.467,0.22685,119.07,197.85,80.885,0.22305,127.26,85.676,209.92,0.22507,tetragonal,0,4.231705396,H4
mp-20158,PbO2,PbO2,282.67,154.95,55,0.40864,282.67,50.821,17.286,0.47003,282.67,36.143,104,0.43868,cubic,0,10.0675993,H1a
mp-567203,La(SiOs)2,La(SiOs)2,142.67,206.87,82.2,0.25833,136.98,198.11,78.681,0.25895,139.82,80.441,202.49,0.25863,tetragonal,0,10.6086852,H4
mp-865181,EuGeO3,EuGeO3,162.67,203.98,79,0.29101,162.67,171.85,64.902,0.32392,162.67,71.951,188.12,0.30726,cubic,0,7.630034567,H1a
mp-2509,ThRh3,ThRh3,166,187.34,71.4,0.31191,166,184.39,70.118,0.31487,166,70.759,185.87,0.31339,cubic,0,12.67761246,H1a
mp-5399,Tb(FeSi)2,Tb(FeSi)2,137.44,207.42,83.067,0.24849,136.51,200.69,79.958,0.25498,136.98,81.512,204.06,0.25171,tetragonal,0,7.200878382,H4
mp-10198,Mn3PdN,Mn3PdN,158.33,190.73,73.4,0.29923,158.33,190.61,73.347,0.29936,158.33,73.374,190.67,0.2993,cubic,0,7.727340165,H1a
mp-1487,AlNi,AlNi,161.33,215.17,84.2,0.27772,161.33,161.09,60.398,0.33358,161.33,72.299,188.71,0.30505,cubic,0,5.906844592,H1a
mp-855,MgBe13,MgBe13,99.333,231.28,104,0.11194,99.333,215.58,94.694,0.13829,99.333,99.347,223.52,0.12496,cubic,0,1.831684728,H1a
mp-1020059,LiGe2N3,LiGe2N3,125.67,212.46,87.2,0.21822,124.99,208.52,85.321,0.22195,125.33,86.261,210.49,0.22008,orthorhombic,2.758,4.710212634,H2
mp-722913,Hf3Zn3N,Hf3Zn3N,134.33,205.24,82.4,0.24536,134.33,205.23,82.397,0.24537,134.33,82.399,205.23,0.24537,cubic,0,11.34403793,H1a
mp-2589,MgO2,MgO2,129,208.27,84.6,0.23092,129,208.27,84.597,0.23092,129,84.599,208.27,0.23092,cubic,3.8015,3.182351591,H2
mp-973022,ScRu3,ScRu3,180.44,199.16,75.667,0.31605,180.43,151.53,55.709,0.36002,180.43,65.688,175.74,0.33767,tetragonal,0,9.457204299,H4
mp-22390,SrRuO3,SrRuO3,166.44,188.02,71.667,0.31173,166.1,182.17,69.15,0.31721,166.27,70.408,185.1,0.31446,orthorhombic,0,6.238930623,H4
mp-20255,TiCuSi,TiCuSi,148.56,202.9,79.733,0.27236,148.22,190.1,73.897,0.28624,148.39,76.815,196.53,0.27925,orthorhombic,0,5.577715257,H4
mp-510624,SrFeO3,SrFeO3,131.33,206.9,83.6,0.23744,131.33,206.69,83.495,0.23771,131.33,83.548,206.79,0.23757,cubic,0,5.305698953,H1a
mp-1025017,NdSi2Ru3,NdSi2Ru3,170.11,200.87,77.067,0.3032,169.62,163.89,61.2,0.33897,169.87,69.133,182.62,0.32082,hexagonal,0,8.351261792,H4
mp-12763,TbB6,TbB6,174.67,253.19,100.6,0.25841,174.67,96.737,34.36,0.40769,174.67,67.48,179.34,0.32887,cubic,0,5.392873956,H1a
mp-603,Be2Ag,Be2Ag,129,208.27,84.6,0.23092,129,207.56,84.248,0.23184,129,84.424,207.91,0.23138,cubic,0,6.320796766,H1a
mp-3701,Sc(Al2Fe)4,Sc(Al2Fe)4,126.44,212.44,87.067,0.21998,126.44,206.18,83.937,0.22822,126.44,85.502,209.32,0.22409,tetragonal,0,4.348807223,H4
mp-973267,KTcO3,KTcO3,111.67,221.31,94.6,0.16969,111.67,213.02,90.106,0.18206,111.67,92.353,217.19,0.17584,cubic,0,5.04977562,H1a
mp-9198,Fe(SiP)4,Fe(SiP)4,115.22,222.7,94.533,0.17787,115.05,207.79,86.654,0.19898,115.14,90.594,215.31,0.18833,triclinic,1.0972,3.345922042,H5
mp-19358,SmMn2O5,SmMn2O5,156.89,198.37,76.933,0.28926,147.38,188.66,73.317,0.28664,152.13,75.125,193.52,0.28799,orthorhombic,0,5.970468982,H4
mp-1121,GaCo,GaCo,175.67,200.64,76.6,0.30964,175.67,154.83,57.212,0.35311,175.67,66.906,178.11,0.33102,cubic,0,8.876587419,H1a
mp-16526,AlPt2,AlPt2,204.78,162.16,59.267,0.36802,204.23,154.56,56.25,0.37387,204.51,57.758,158.37,0.37094,orthorhombic,0,15.41686204,H4
mp-567929,Al13Os4,Al13Os4,147.78,203.89,80.267,0.27005,146.69,188.96,73.508,0.28531,147.24,76.888,196.46,0.27761,monoclinic,0,6.984115684,H4
mp-865215,TmHfRu2,TmHfRu2,156.33,197.09,76.4,0.28988,156.33,183.79,70.467,0.30406,156.33,73.434,190.48,0.29693,cubic,0,12.75865644,H1a
mp-5288,Y(FeSi)2,Y(FeSi)2,140,202.87,80.6,0.25849,139.64,198.62,78.636,0.26293,139.82,79.618,200.75,0.2607,tetragonal,0,5.683016359,H4
mp-20552,Cr2As,Cr2As,165.67,200.91,77.4,0.29788,165.38,167.63,62.967,0.33107,165.52,70.184,184.48,0.31425,tetragonal,0,7.408616459,H4
mp-976273,Hf3Ge2,Hf3Ge2,129.89,210.41,85.533,0.23001,129.29,203.04,81.985,0.23826,129.59,83.759,206.74,0.23411,tetragonal,0,11.89511204,H4
mp-865712,Ti2MnNi,Ti2MnNi,176.67,177.02,66.4,0.333,176.67,177.01,66.396,0.33301,176.67,66.398,177.02,0.333,cubic,0,6.578268698,H1a
mp-504659,Hf2P,Hf2P,148.78,201.07,78.867,0.27475,148.76,189.18,73.438,0.28805,148.77,76.152,195.16,0.28137,orthorhombic,0,11.58532114,H4
mp-754696,PrTiO3,PrTiO3,177.67,182.8,68.8,0.32851,177.67,169.78,63.316,0.34073,177.67,66.058,176.32,0.3346,cubic,0,6.412430763,H1a
mp-777413,CeScO3,CeScO3,155.56,191.47,73.933,0.29486,154.54,190.68,73.657,0.29436,155.05,73.795,191.07,0.29461,orthorhombic,0,5.832244052,H4
mp-1567,ThNi5,ThNi5,183.89,174.77,65.133,0.3416,183.18,169.77,63.086,0.34554,183.53,64.109,172.27,0.34356,hexagonal,0,10.39201143,H4
mp-6613,Ba2YTaO6,Ba2YTaO6,137.67,205.25,82,0.25152,137.67,198.3,78.697,0.25992,137.67,80.348,201.79,0.25571,cubic,3.3618,6.819522757,H2
mp-4904,Pr(SiRu)2,Pr(SiRu)2,144.78,204.95,81.067,0.26407,135.9,195.32,77.479,0.26046,140.34,79.273,200.14,0.26232,tetragonal,0,7.472869821,H4
mp-507,SiNi2,SiNi2,204.44,170.08,62.467,0.36135,201.02,147.75,53.631,0.3775,202.73,58.049,158.97,0.36931,hexagonal,0,7.35335729,H4
mp-3938,ZrSiS,ZrSiS,125.78,213.81,87.867,0.21668,123.69,204.7,83.607,0.22418,124.74,85.737,209.26,0.22039,tetragonal,0,4.860704739,H4
mp-17481,Mg4Ta2O9,Mg4Ta2O9,149,199.67,78.2,0.27666,148.34,190.23,73.944,0.28628,148.67,76.072,194.96,0.28144,trigonal,4.2121,6.001454496,H2
mp-540912,As3Ir,As3Ir,129.67,206.84,83.8,0.23414,129.67,206.03,83.399,0.23518,129.67,83.6,206.43,0.23466,cubic,0.0268,8.721001425,H5
mp-28232,MgTi2O5,MgTi2O5,163.78,190.37,72.867,0.30627,159.34,182.97,69.911,0.30861,161.56,71.389,186.67,0.30743,orthorhombic,2.7097,3.551494261,H2
mp-861954,LiTaRu2,LiTaRu2,178,177.64,66.6,0.33367,178,173.92,65.035,0.33715,178,65.818,175.79,0.33541,cubic,0,11.30085077,H1a
mp-972822,SiBO3,SiBO3,161.67,248.72,100,0.24359,161.67,117.67,42.673,0.37869,161.67,71.337,186.57,0.30766,cubic,0,3.885644915,H1a
mp-12657,HfAl2,HfAl2,120.33,212.26,88,0.20601,120.26,210.93,87.327,0.20769,120.3,87.664,211.59,0.20685,hexagonal,0,7.417121002,H4
mp-1973,NbGa3,NbGa3,122.56,213.67,88.333,0.20943,122.07,207.28,85.161,0.21699,122.31,86.747,210.48,0.21319,tetragonal,0,7.75869277,H4
mp-11345,ZrP,ZrP,135.11,212.16,85.667,0.23829,133.93,194.54,77.325,0.25791,134.52,81.496,203.41,0.24798,hexagonal,0,5.396878293,H4
mp-21030,Ti3Sn,Ti3Sn,117.22,32.375,11.133,0.45397,117.12,339.58,166.99,0.016753,117.17,89.064,213.18,0.19677,hexagonal,0,6.050722571,H4
mp-569482,LaSi2Ru3,LaSi2Ru3,170.33,209.3,80.8,0.2952,158.79,159.2,59.717,0.33291,164.56,70.259,184.52,0.31313,hexagonal,0,8.134756954,H4
mp-754455,Sc2O3,Sc2O3,145.67,205.43,81.2,0.26496,135.71,193.8,76.785,0.26198,140.69,78.993,199.62,0.26352,trigonal,4.0993,3.623179543,H2
mp-13263,Ce2Mo2C3,Ce2Mo2C3,140.44,207.74,82.867,0.25347,132.76,196.38,78.335,0.25346,136.6,80.601,202.06,0.25347,monoclinic,0,7.878984461,H4
mp-1025316,Ho2Fe2Si2C,Ho2Fe2Si2C,130.22,214.53,87.533,0.22543,127.92,198.16,79.786,0.24181,129.07,83.66,206.39,0.23349,monoclinic,0,7.927919298,H4
mp-9830,NbP,NbP,159.22,229.6,91.133,0.25967,132.5,162.46,62.695,0.29564,145.86,76.914,196.25,0.27576,tetragonal,0,6.347577542,H4
mp-5503,ErTaO4,ErTaO4,161.11,193.13,74.267,0.30022,155.84,183.23,70.254,0.30404,158.47,72.261,188.18,0.30209,monoclinic,4.0922,9.245434392,H2
mp-1025187,CdPPt5,CdPPt5,186.44,183,68.467,0.33641,186.22,156.02,57.346,0.36036,186.33,62.906,169.63,0.34827,tetragonal,0,16.39049471,H4
mp-10708,PrRh3C,PrRh3C,177.67,175.71,65.8,0.33517,177.67,175.14,65.561,0.3357,177.67,65.68,175.42,0.33544,cubic,0,9.969271726,H1a
mp-1017543,ZrPd3,ZrPd3,151.67,200.63,78.4,0.27953,151.67,184,70.89,0.2978,151.67,74.645,192.37,0.2886,cubic,0,10.34076087,H1a
mp-1025311,CdAsPt5,CdAsPt5,199.33,166.06,61,0.36115,198.48,155.57,56.805,0.36936,198.9,58.903,160.83,0.36524,tetragonal,0,16.41244379,H4
mp-1009792,RuC,RuC,223,145.27,52.2,0.39143,223,142.57,51.157,0.39345,223,51.679,143.92,0.39244,cubic,0.7149,7.889818782,H5
mp-2906,Ho(NiP)2,Ho(NiP)2,124.44,213.38,87.867,0.21422,124.24,204,83.176,0.22634,124.34,85.521,208.71,0.22025,tetragonal,0,8.183607948,H4
mp-10688,CeO,CeO,126,219.25,90.6,0.20999,126,195.83,78.904,0.24096,126,84.752,207.69,0.22528,cubic,0,8.366624446,H1a
mp-684591,Al2O3,Al2O3,147,223.82,89.8,0.24623,131.28,175.65,68.773,0.277,139.14,79.286,199.89,0.26056,triclinic,3.3433,3.482552263,H5
mp-2856,Mn4Al11,Mn4Al11,125.89,210.81,86.333,0.22091,124.97,204.97,83.55,0.22664,125.43,84.942,207.9,0.22375,triclinic,0,4.068219269,H4
mp-754711,Nb2Pb2O7,Nb2Pb2O7,144.67,197.92,77.8,0.27198,144.67,194.96,76.431,0.27539,144.67,77.116,196.44,0.27368,cubic,1.0429,7.371597991,H5
mvc-5816,CoO2,CoO2,145.78,206.45,81.667,0.26397,140.49,188.19,73.699,0.27675,143.14,77.683,197.35,0.27021,orthorhombic,0.0125,5.105207072,H2
mp-567695,UMn2,UMn2,225.22,79.92,27.733,0.44086,213.43,207.47,77.53,0.33799,219.32,52.632,146.2,0.3889,orthorhombic,0,13.49039253,H4
mp-30595,CuSnRh2,CuSnRh2,177.33,192.11,72.8,0.31944,177.33,157.69,58.328,0.35179,177.33,65.564,175.11,0.33542,cubic,0,10.68558131,H1a
mp-29356,NaTi2O4,NaTi2O4,144.44,199.74,78.667,0.26953,143.64,193.59,75.896,0.27537,144.04,77.281,196.67,0.27243,orthorhombic,0,4.032112724,H4
mp-975208,RbRuO3,RbRuO3,163.33,192.87,74,0.30319,163.33,175.71,66.523,0.3207,163.33,70.262,184.35,0.31189,cubic,0,6.184041013,H1a
mp-4748,NaNbO3,NaNbO3,124,219.73,91.2,0.20466,121.74,198.25,80.68,0.2286,122.87,85.94,209.07,0.2164,orthorhombic,1.6831,4.399581445,H2
mp-867771,TaCuRh2,TaCuRh2,224.33,202.93,75.2,0.34924,224.33,77.692,26.934,0.44228,224.33,51.067,142.4,0.39421,cubic,0,12.81865471,H1a
mp-10905,Al3Pt2,Al3Pt2,153.78,192.35,74.467,0.29153,153.36,188.74,72.88,0.29488,153.57,73.674,190.55,0.2932,trigonal,0,9.60067116,H2
mp-29752,NiGePt2,NiGePt2,198.78,170.12,62.667,0.35736,194.03,153.67,56.166,0.368,196.4,59.417,161.92,0.36259,orthorhombic,0,15.17888469,H4
mp-867195,SrOsO3,SrOsO3,186.67,172.31,64,0.34615,186.67,164.82,60.914,0.35284,186.67,62.457,168.57,0.34949,cubic,0,8.503074602,H1a
mp-1697,TbPt2,TbPt2,157.33,193.26,74.6,0.29528,157.33,182.84,69.985,0.30631,157.33,72.293,188.07,0.30077,cubic,0,15.92900131,H1a
mp-1029403,RbGe2N3,RbGe2N3,129.44,212.96,86.867,0.2258,128.15,198.03,79.691,0.24246,128.8,83.279,205.54,0.23403,orthorhombic,1.0881,5.438251544,H2
mp-20971,SnPt3,SnPt3,200.67,163.19,59.8,0.36446,200.67,154.53,56.328,0.37166,200.67,58.064,158.87,0.36805,cubic,0,17.39227661,H1a
mp-864968,MnInRh2,MnInRh2,209,186.48,69,0.35129,209,118.24,42.056,0.40571,209,55.528,153.03,0.37797,cubic,0,9.967821158,H1a
mp-779517,Sr3Hf2O7,Sr3Hf2O7,135.89,205.5,82.333,0.24796,135.85,197.09,78.324,0.2582,135.87,80.329,201.31,0.25306,tetragonal,3.7163,6.768937437,H4
mp-1025223,Hf4Al3,Hf4Al3,123.44,211.87,87.267,0.21394,121.36,206.25,84.754,0.21675,122.4,86.01,209.06,0.21533,hexagonal,0,9.794990938,H4
mp-2061,ThTl3,ThTl3,164.33,183.43,69.8,0.31397,164.33,182.91,69.575,0.31449,164.33,69.687,183.17,0.31423,cubic,0,12.36451305,H1a
mp-3591,NdBRh3,NdBRh3,155,193.75,75,0.29167,155,184.58,70.909,0.30153,155,72.955,189.18,0.29658,cubic,0,9.936250497,H1a
mp-2493,CeN,CeN,146.33,195.22,76.4,0.27765,146.33,194.02,75.847,0.27902,146.33,76.124,194.62,0.27833,cubic,0,7.942475673,H1a
mp-5594,Sc2Si2O7,Sc2Si2O7,160.67,192.9,74.2,0.29989,157.41,180.08,68.769,0.30933,159.04,71.485,186.51,0.30454,monoclinic,4.3259,3.2945184,H2
mp-4438,CaSnO3,CaSnO3,143.56,197.11,77.533,0.27115,143.02,195.75,76.955,0.27187,143.29,77.244,196.43,0.27151,orthorhombic,2.3514,5.341380965,H2
mp-864896,Zr2CoTc,Zr2CoTc,164.33,186.19,71,0.31117,164.33,179.72,68.195,0.31772,164.33,69.597,182.96,0.31444,cubic,0,8.160734474,H1a
mp-4238,MnFeAs,MnFeAs,158.89,191.57,73.733,0.29906,158.71,181.11,69.136,0.30981,158.8,71.435,186.36,0.30441,hexagonal,0,7.893436445,H4
mp-754040,CeSmO2,CeSmO2,136,213.49,86.2,0.23837,135.76,187.54,73.848,0.26976,135.88,80.024,200.68,0.25385,trigonal,0,8.702113576,H2
mp-21078,Fe3Ge,Fe3Ge,168.89,185.74,70.533,0.3167,168.49,173.85,65.453,0.32803,168.69,67.993,179.82,0.32234,hexagonal,0,8.241307056,H4
mp-862335,LiAsRh2,LiAsRh2,163.33,183.29,69.8,0.31297,163.33,183.26,69.786,0.313,163.33,69.793,183.27,0.31298,cubic,0,9.085861443,H1a
mp-867156,ScGaRu2,ScGaRu2,171.33,180.16,68,0.32474,171.33,175.67,66.087,0.32911,171.33,67.043,177.92,0.32692,cubic,0,8.631462659,H1a
mp-568055,Nd(PRu)2,Nd(PRu)2,134.22,226.52,92.933,0.21872,104.64,192.96,80.894,0.19267,119.43,86.914,209.84,0.20717,tetragonal,0,8.157761412,H4
mp-645159,FeBiO3,FeBiO3,162,185.85,71,0.3088,161.94,181.93,69.291,0.31276,161.97,70.145,183.89,0.31078,orthorhombic,1.5692,8.410847927,H2
mp-974642,LiAg2Pb,LiAg2Pb,145.67,17.172,5.8,0.48035,145.67,328.73,146.25,0.12387,145.67,76.025,194.28,0.27772,cubic,0,8.716806812,H1a
mp-865187,MgFeRh2,MgFeRh2,155.33,194.25,75.2,0.29157,155.33,181.75,69.636,0.30499,155.33,72.418,188.03,0.29825,cubic,0,8.317102784,H1a
mp-862610,LiHfIr2,LiHfIr2,172,178.37,67.2,0.32716,172,175.81,66.113,0.32964,172,66.656,177.09,0.3284,cubic,0,15.3935007,H1a
mp-9929,ZrCuSiAs,ZrCuSiAs,137.33,201.4,80.2,0.25559,135.96,197.8,78.649,0.25752,136.65,79.424,199.6,0.25655,tetragonal,0,6.538643711,H4
mp-10666,Mn3AgN,Mn3AgN,140.67,197.07,77.8,0.26651,140.67,197.07,77.799,0.26651,140.67,77.8,197.07,0.26651,cubic,0,7.418391782,H1a