Material_ID,Formula,pretty_formula,KV ,EV ,GV ,PV ,KR ,ER ,GR ,PR ,bulk,shear,young,poisson,csyst,gap,density,y_cla
mp-1299,SiPt2,SiPt2,205.67,192.47,71.6,0.34403,201.22,167.24,61.42,0.36147,203.44,66.51,179.92,0.3526,tetragonal,0,14.62301745,H4
mp-8212,Cd(PtO2)3,Cd(PtO2)3,193.67,197.86,74.4,0.32972,190.25,177.45,65.989,0.34455,191.96,70.194,187.7,0.33703,orthorhombic,0.2797,10.76841873,H2
mp-567907,P3N5,P3N5,148.56,233.15,94.133,0.23842,142.01,201.73,79.846,0.26325,145.28,86.99,217.55,0.25043,monoclinic,3.56,2.693616872,H2
mp-998965,TiInFe2,TiInFe2,239,175.25,63.6,0.37779,239,134.37,47.775,0.4063,239,55.687,155.02,0.3919,cubic,0,8.086538995,H1a
mp-632442,Al4C3,Al4C3,144.22,239.17,97.733,0.2236,137.75,200.21,79.591,0.25777,140.99,88.662,219.89,0.24006,triclinic,0,2.99867089,H4
mp-571147,Hf(SiNi)2,Hf(SiNi)2,174.22,203.46,77.933,0.30536,172.59,195.9,74.726,0.31082,173.41,76.33,199.69,0.30807,tetragonal,0,8.567434692,H4
mp-866224,Be2NiPt,Be2NiPt,208,196.54,73.2,0.34251,208,155.78,56.642,0.37517,208,64.921,176.41,0.35865,cubic,0,11.00243849,H1a
mp-19400,Sr2NiWO6,Sr2NiWO6,188.67,191.15,71.8,0.33114,188.67,187.62,70.31,0.33425,188.67,71.055,189.39,0.33269,cubic,3.368,6.624548499,H2
mp-5076,SrZrO3,SrZrO3,145.33,220.91,88.6,0.24666,141.75,215.3,86.335,0.24686,143.54,87.468,218.1,0.24676,tetragonal,3.5595,5.234165448,H4
mp-9716,TiBO3,TiBO3,185.22,210.1,80.133,0.31095,173,181.26,68.38,0.32537,179.11,74.257,195.72,0.31787,trigonal,0,3.701937126,H2
mp-1025397,GeRu,GeRu,161.67,220.87,86.8,0.2723,161.67,192.53,73.962,0.30152,161.67,80.381,206.86,0.28674,cubic,0.166,9.826555984,H5
mp-9953,HfP,HfP,149.22,226.74,90.933,0.24675,147.87,202.96,79.828,0.27124,148.55,85.381,214.96,0.25882,hexagonal,0,9.617071841,H4
mvc-15448,YNiO3,YNiO3,175.11,203.9,78.067,0.30593,175.11,192.33,73.021,0.31694,175.11,75.544,198.14,0.31142,cubic,0,6.125331853,H1a
mp-1029330,Hf2SeN2,Hf2SeN2,159.78,213.26,83.467,0.27754,158.56,203.4,79.069,0.2862,159.17,81.268,208.34,0.28184,trigonal,0.8009,10.18628628,H2
mp-977572,Hf2MnRh,Hf2MnRh,167.33,205.67,79.4,0.29515,167.33,200.53,77.109,0.30027,167.33,78.255,203.1,0.29771,cubic,0,12.89528164,H1a
mp-558636,CaAl2O4,CaAl2O4,145.44,234.99,95.467,0.23073,141.68,200.06,79.097,0.26466,143.56,87.282,217.72,0.24724,monoclinic,4.9805,3.520620841,H2
mp-1019544,BaZrO3,BaZrO3,143.33,219.15,88,0.24517,142.65,216.92,87.009,0.24656,142.99,87.504,218.04,0.24586,tetragonal,3.1177,5.983317002,H4
mp-13085,Mn2CoSb,Mn2CoSb,169,214.86,83.4,0.28811,169,188.52,71.732,0.31408,169,77.566,201.82,0.30097,cubic,0,8.973981217,H1a
mp-22212,NaSbO3,NaSbO3,129.11,229.77,95.467,0.2034,128.71,221.92,91.505,0.21264,128.91,93.486,225.86,0.20799,orthorhombic,1.2828,5.416017516,H2
mp-5690,GdScO3,GdScO3,163.44,208.25,80.867,0.28764,159.95,204.52,79.462,0.28689,161.69,80.164,206.39,0.28727,orthorhombic,3.1447,6.48480479,H2
mp-1001834,HfN,HfN,171.33,269.38,108.8,0.23796,171.33,123.02,44.563,0.38033,171.33,76.681,200.18,0.30527,cubic,0,14.31175876,H1a
mp-9223,ScGeRu,ScGeRu,154.11,216.82,85.667,0.26551,150.63,207.45,81.642,0.27047,152.37,83.654,212.14,0.26796,hexagonal,0,7.364340091,H4
mp-11277,ScBe5,ScBe5,108.22,240.98,106.73,0.12888,108.13,230.86,100.89,0.14416,108.18,103.81,235.95,0.13647,hexagonal,0,2.397614043,H4
mp-27276,Si12Ni31,Si12Ni31,198.67,183.11,68,0.34639,198.34,180.73,67.029,0.34813,198.5,67.515,181.92,0.34726,trigonal,0,7.616395291,H2
mp-4571,CaZrO3,CaZrO3,148.44,215.54,85.667,0.258,147.71,213.63,84.844,0.25895,148.08,85.256,214.58,0.25848,orthorhombic,3.826,4.46654005,H2
mp-867917,CuGeRh2,CuGeRh2,199.33,186.07,69.2,0.34442,199.33,176.58,65.287,0.35236,199.33,67.243,181.34,0.34838,cubic,0,10.49301766,H1a
mp-1515,ZrSi2,ZrSi2,126.78,233.13,97.667,0.19351,122.72,222.43,92.839,0.19792,124.75,95.253,227.78,0.19568,orthorhombic,0,4.846510561,H4
mp-1018672,CoAs2,CoAs2,147.56,236.13,95.733,0.23328,141.53,196.64,77.514,0.26843,144.54,86.623,216.6,0.25024,orthorhombic,0,7.346451599,H4
mp-866139,TiBe2Ir,TiBe2Ir,190.67,235.53,91,0.29412,190.67,135.18,48.913,0.38184,190.67,69.957,187,0.33654,cubic,0,9.349643675,H1a
mp-18971,Mn(PtO2)3,Mn(PtO2)3,191.11,198.66,74.867,0.32675,190.03,175.27,65.095,0.34627,190.57,69.981,187.05,0.33641,orthorhombic,0.2409,10.28643504,H2
mp-5852,Pr(SiOs)2,Pr(SiOs)2,144.44,220.82,88.667,0.24521,142.57,213.32,85.284,0.25062,143.51,86.975,217.07,0.24789,tetragonal,0,10.77621041,H4
mp-10245,Hf3(CuSi)4,Hf3(CuSi)4,153.78,216.75,85.667,0.26508,153.32,205,80.255,0.27716,153.55,82.961,210.9,0.27108,orthorhombic,0,9.213002012,H4
mp-15965,Hf5Si3,Hf5Si3,141.89,219.87,88.533,0.24173,141,216.51,87.015,0.24408,141.44,87.774,218.19,0.2429,hexagonal,0,10.91671415,H4
mp-6102,NdNi2B2C,NdNi2B2C,177.78,200.63,76.467,0.31191,177.63,190.2,71.96,0.32154,177.7,74.213,195.43,0.3167,tetragonal,0,7.179174879,H4
mp-3748,AlCuO2,AlCuO2,165.56,238.68,94.733,0.25972,153.48,174.5,66.579,0.31051,159.52,80.656,207.07,0.28365,trigonal,1.8709,4.978571486,H2
mp-5794,Zn(GaO2)2,Zn(GaO2)2,168.33,213.85,83,0.28827,168.33,188.82,71.902,0.31305,168.33,77.451,201.46,0.30054,cubic,2.3302,5.900596839,H2
mp-867347,Al3Tc,Al3Tc,145.11,123.99,45.667,0.35759,144.79,294.51,126.84,0.16098,144.95,86.253,215.93,0.25172,tetragonal,0,5.007580467,H4
mp-9270,SbIrS,SbIrS,142.78,221.2,89.067,0.24179,142.73,213.17,85.195,0.25108,142.76,87.131,217.2,0.24642,orthorhombic,1.3185,10.09023963,H2
mp-865248,TmNbRu2,TmNbRu2,178,201.43,76.8,0.31139,178,188.6,71.254,0.32341,178,74.027,195.04,0.31738,cubic,0,11.12462922,H1a
mp-1147,Ti3O5,Ti3O5,180.33,207.26,79.2,0.30845,162.37,191.38,73.409,0.30356,171.35,76.304,199.33,0.30613,monoclinic,0,4.187247774,H4
mp-865044,MgInIr2,MgInIr2,165.33,214.63,83.6,0.28364,165.33,191.37,73.204,0.30709,165.33,78.402,203.1,0.29526,cubic,0,13.40154795,H1a
mp-29153,Zr2NiP,Zr2NiP,152,214.51,84.8,0.26479,151.32,208.76,82.186,0.27006,151.66,83.493,211.64,0.26742,monoclinic,0,6.691112012,H4
mp-9514,Mg(AlC)2,Mg(AlC)2,137.44,250.43,104.67,0.19632,130.67,192.49,76.722,0.25448,134.06,90.695,222.02,0.22398,trigonal,1.8172,2.929437751,H2
mp-11272,Be2Nb3,Be2Nb3,165.11,203.66,78.667,0.29443,165.1,202.73,78.253,0.29535,165.1,78.46,203.19,0.29488,tetragonal,0,6.853194406,H4
mp-24082,Ta2H,Ta2H,204.44,183.32,67.867,0.35056,201,172.59,63.598,0.35689,202.72,65.732,177.96,0.35369,orthorhombic,0,15.32507111,H4
mp-5381,U2PN2,U2PN2,157,215.15,84.6,0.2716,156.01,201.53,78.433,0.28471,156.51,81.517,208.37,0.2781,trigonal,0,10.88294968,H2
mp-3108,Lu(SiRh)2,Lu(SiRh)2,148.33,217.48,86.6,0.25564,148.33,209.05,82.623,0.2651,148.33,84.612,213.28,0.26036,tetragonal,0,8.96764181,H4
mp-1025218,SiPt5Pb,SiPt5Pb,199,187.48,69.8,0.34298,198.43,173.58,64.088,0.35421,198.71,66.944,180.56,0.34856,tetragonal,0,16.95318316,H4
mp-865364,DyTaRu2,DyTaRu2,181.33,202.36,77,0.31401,181.33,181.41,68.034,0.33326,181.33,72.517,191.96,0.32356,cubic,0,12.89998335,H1a
mp-4228,Nd(CoSi)2,Nd(CoSi)2,142,225.35,91.2,0.2355,139.94,209.29,83.667,0.25074,140.97,87.433,217.36,0.24302,tetragonal,0,6.806067068,H4
mp-753197,HfTiO4,HfTiO4,186.67,200.75,76,0.32075,176.49,182.72,68.825,0.32745,181.58,72.412,191.75,0.324,triclinic,2.826,6.989656311,H5
mp-1016825,HfMgO3,HfMgO3,161,227.59,90,0.2644,161,181.5,69.164,0.31211,161,79.582,204.97,0.28781,cubic,0.7867,6.165888288,H5
mp-616559,Ti2S,Ti2S,147.56,217.99,86.933,0.25378,147.53,208.32,82.365,0.26465,147.54,84.649,213.18,0.25919,orthorhombic,0,4.802688104,H4
mp-865523,TiMnRh2,TiMnRh2,183.33,198.46,75.2,0.31958,183.33,181.63,68.032,0.33488,183.33,71.616,190.1,0.32719,cubic,0,8.764975409,H1a
mp-1025324,SiSnPt5,SiSnPt5,185.56,194.39,73.333,0.3254,184.6,183.16,68.62,0.33463,185.08,70.977,188.8,0.32999,tetragonal,0,16.23993656,H4
mp-867915,ScGaCo2,ScGaCo2,148.67,212.91,84.4,0.26131,148.67,211.2,83.594,0.26323,148.67,83.997,212.05,0.26227,cubic,0,7.175319037,H1a
mp-22156,Hf2InC,Hf2InC,129.56,225,92.933,0.21055,129.1,221.54,91.246,0.21399,129.33,92.09,223.27,0.21226,hexagonal,0,11.27081104,H4
mp-3163,BaSnO3,BaSnO3,134,220.61,90,0.22561,134,220.47,89.933,0.22578,134,89.966,220.54,0.22569,cubic,0.3949,6.869983973,H5
mp-19124,Ca3Mn2O7,Ca3Mn2O7,142.56,217.16,87.133,0.24611,142.06,214.21,85.774,0.24868,142.31,86.454,215.68,0.24739,tetragonal,0,4.092605522,H4
mp-542777,CePt5,CePt5,208.78,179.29,66.067,0.35687,201.52,170.42,62.698,0.35905,205.15,64.382,174.86,0.35794,hexagonal,0,16.55408494,H4
mp-983590,Be3Fe,Be3Fe,154.33,252.37,102.8,0.22747,154.33,160.77,60.606,0.32638,154.33,81.703,208.34,0.27501,cubic,0,4.042916503,H1a
mp-756088,SrTaNO2,SrTaNO2,152.22,215.27,85.133,0.2643,148.6,206.07,81.2,0.26889,150.41,83.166,210.67,0.26656,monoclinic,1.4941,7.794590262,H4
mp-1001011,TaO3,TaO3,187.67,245.61,95.8,0.28188,187.67,122.42,43.994,0.39128,187.67,69.897,186.53,0.33434,cubic,0,6.145869949,H1a
mp-554462,TiS,TiS,140.44,242.59,100.07,0.21212,135.51,192.35,76.122,0.26343,137.98,88.094,217.91,0.23678,hexagonal,0,4.46475117,H4
mp-21237,CoGe,CoGe,156,215.8,85,0.26944,147.5,203.52,80.125,0.27003,151.75,82.563,209.66,0.26973,monoclinic,0,8.165894185,H4
mp-18816,Fe2SiO4,Fe2SiO4,180.67,191.61,72.4,0.32324,180.67,190.55,71.947,0.32422,180.67,72.174,191.08,0.32373,cubic,2.8589,4.676801522,H2
mp-20327,TiP2,TiP2,132.11,224.92,92.467,0.21624,130.29,218.38,89.453,0.22065,131.2,90.96,221.66,0.21843,orthorhombic,0,4.262086038,H4
mp-1025270,GaPPt5,GaPPt5,180.56,203.02,77.333,0.3126,180.36,178.99,67.059,0.3346,180.46,72.196,191.1,0.3235,tetragonal,0,16.4774458,H4
mp-48,C,C,236.67,441.79,185.8,0.18888,7.8504,10.833,4.2648,0.27002,122.26,95.032,226.43,0.19133,hexagonal,0,1.741733951,H4
mp-7798,MgGeN2,MgGeN2,147.44,214.46,85.267,0.25758,147.03,210.01,83.211,0.26194,147.24,84.239,212.24,0.25975,orthorhombic,2.6376,4.290918322,H2
mp-583,CoAs,CoAs,158.22,210.93,82.533,0.27782,156.19,201.21,78.276,0.28529,157.21,80.405,206.08,0.28152,orthorhombic,0,8.277261201,H4
mp-4322,Pr(CoB)2,Pr(CoB)2,139.67,223.88,90.8,0.23284,134.09,212.73,86.082,0.2356,136.88,88.441,218.31,0.23419,tetragonal,0,7.156077157,H4
mp-631323,HgOsPb2,HgOsPb2,190.67,13.69,4.6,0.48803,190.67,323.45,132.86,0.21727,190.67,68.729,184.07,0.3391,cubic,0,14.35996361,H1a
mp-1025167,Hf(VGa2)2,Hf(VGa2)2,131.22,228.29,94.333,0.21004,129.51,215.09,87.919,0.22321,130.37,91.126,221.72,0.21655,tetragonal,0,8.568621766,H4
mp-6646,HoNi2B2C,HoNi2B2C,175.11,202.99,77.667,0.3068,174.78,185.45,70.078,0.32316,174.95,73.872,194.27,0.31492,tetragonal,0,8.110751252,H4
mp-4939,Dy(FeSi)2,Dy(FeSi)2,149.44,213.65,84.667,0.26173,148.27,207.95,82.111,0.26625,148.86,83.389,210.8,0.26397,tetragonal,0,7.343450819,H4
mp-2018,AlFe3,AlFe3,173.33,242.26,95.6,0.26706,173.33,144.76,53.189,0.36081,173.33,74.395,195.25,0.31226,cubic,0,6.813013992,H1a
mp-690544,Ga2FeO4,Ga2FeO4,173.11,202.23,77.467,0.30529,172.83,188.57,71.528,0.31816,172.97,74.497,195.43,0.31169,orthorhombic,0.5743,5.684689332,H2
mp-761415,CuNi3O4,CuNi3O4,171.56,206.21,79.333,0.29966,157.25,195.57,75.64,0.29273,164.41,77.487,200.9,0.29634,orthorhombic,0,6.611131841,H4
mp-570293,Nb5Ga3,Nb5Ga3,165.89,210.17,81.533,0.28885,163.62,191.09,73.195,0.30535,164.75,77.364,200.68,0.29699,tetragonal,0,8.167161996,H4
mp-1025181,Tm2Cr2C3,Tm2Cr2C3,167,209.62,81.2,0.29079,166.16,189.17,72.189,0.31025,166.58,76.695,199.47,0.30043,monoclinic,0,8.691772637,H4
mp-451,ZrB,ZrB,158.67,226.64,89.8,0.26193,158.67,181.07,69.121,0.3098,158.67,79.46,204.28,0.28542,cubic,0,5.716272279,H1a
mp-18793,LiCrO2,LiCrO2,154.78,226.3,90.067,0.25631,141.82,194.89,76.669,0.27097,148.3,83.368,210.63,0.26328,trigonal,3.1879,4.101011017,H2
mp-1001571,CaFeO3,CaFeO3,135.67,218.28,88.6,0.23184,135.67,217.85,88.385,0.23237,135.67,88.492,218.06,0.23211,cubic,0,4.231856237,H1a
mp-865780,TiMn2Ga,TiMn2Ga,160.33,209.73,81.8,0.28198,160.33,196.3,75.738,0.29594,160.33,78.769,203.05,0.28892,cubic,0,6.573741229,H1a
mp-22522,ZrCuSi,ZrCuSi,146.56,215.23,85.733,0.25523,146.02,208.2,82.463,0.26237,146.29,84.098,211.72,0.25878,orthorhombic,0,6.436060244,H4
mp-343,PrN,PrN,132.67,219.81,89.8,0.22386,132.67,219.55,89.671,0.22419,132.67,89.736,219.68,0.22402,cubic,0.4125,7.229507537,H5
mp-7017,NaNbN2,NaNbN2,139.22,246.97,102.53,0.20434,121.84,194.47,78.799,0.23397,130.53,90.666,220.86,0.21799,trigonal,0.9165,4.862637322,H2
mp-8697,ScBO3,ScBO3,166.67,213.99,83.2,0.28601,155.09,190.81,73.676,0.29495,160.88,78.438,202.42,0.2903,trigonal,4.1741,3.346911802,H2
mp-1008922,CuN,CuN,205.33,173.44,63.8,0.35922,205.33,172.15,63.278,0.36027,205.33,63.539,172.79,0.35975,cubic,0,7.126800238,H1a
mp-20730,HfCo2Sn,HfCo2Sn,164,204.66,79.2,0.29202,164,195.8,75.249,0.30102,164,77.224,200.24,0.2965,cubic,0,11.27775434,H1a
mp-2903,UAl3Ni2,UAl3Ni2,132.33,220.5,90.2,0.22229,132.3,218.29,89.098,0.225,132.32,89.649,219.4,0.22365,hexagonal,0,7.832617582,H4
mp-27927,NbAlO4,NbAlO4,172.67,201.11,77,0.30588,172.3,188.09,71.35,0.31806,172.49,74.175,194.63,0.31194,monoclinic,3.4056,4.164169961,H2
mp-17045,Hf3Rh5,Hf3Rh5,194.22,184.92,68.933,0.34131,194.07,175.22,64.918,0.34952,194.15,66.926,180.08,0.3454,orthorhombic,0,13.20823651,H4
mp-819,HfCr2,HfCr2,190.67,182.8,68.2,0.34021,190.67,182.02,67.873,0.34089,190.67,68.037,182.41,0.34055,cubic,0,10.50798915,H1a
mp-4346,SrRuO3,SrRuO3,159.56,207.25,80.733,0.28352,159.55,198.34,76.707,0.29282,159.55,78.72,202.81,0.28815,cubic,0,6.200077743,H1a
mp-5443,Nb2SnC,Nb2SnC,159.89,205.55,79.933,0.28574,159.55,199.8,77.365,0.29129,159.72,78.649,202.68,0.2885,hexagonal,0,8.127472926,H4
mp-20516,InPt3,InPt3,204.33,177.78,65.6,0.355,204.33,168.22,61.717,0.36279,204.33,63.659,173.01,0.35888,cubic,0,17.44476384,H1a
mp-1017556,CuNi3N,CuNi3N,196.33,192.95,72.2,0.33621,196.33,163.68,60.129,0.36105,196.33,66.164,178.45,0.34852,cubic,0,8.116465783,H1a
mp-2192,BPt,BPt,262.11,134.29,47.467,0.41461,261.66,129.72,45.761,0.41737,261.89,46.614,132.01,0.41599,hexagonal,0,15.25886287,H4
mp-865235,Ti6Al16Ni7,Ti6Al16Ni7,130,221.75,91.2,0.21571,130,218.44,89.531,0.21994,130,90.365,220.1,0.21782,cubic,0,4.564324439,H1a
mp-28896,CuBIr,CuBIr,194.44,191.48,71.667,0.33588,188.11,171.53,63.622,0.34802,191.28,67.645,181.53,0.34182,orthorhombic,0,12.35500426,H4
mp-1017533,YN,YN,143.33,243.4,100,0.21698,141.96,180.34,69.992,0.28827,142.65,84.996,212.74,0.25144,hexagonal,0.2059,5.599301889,H1a
mp-3909,ZrAlCo2,ZrAlCo2,160.67,202.3,78.4,0.29015,160.67,200.91,77.778,0.29158,160.67,78.089,201.6,0.29087,cubic,0,6.969839193,H1a
mp-867928,ScGaRh2,ScGaRh2,161,201.47,78,0.29144,161,201.29,77.922,0.29162,161,77.961,201.38,0.29153,cubic,0,8.698100684,H1a
mp-4982,SmBRh3,SmBRh3,163.67,205.49,79.6,0.29075,163.67,193.7,74.344,0.30275,163.67,76.972,199.62,0.29672,cubic,0,10.22342509,H1a
mp-19940,VAs,VAs,142.11,225.93,91.467,0.23503,137.97,202.07,80.448,0.2559,140.04,85.957,214.07,0.24523,orthorhombic,0,6.798085596,H4
mp-632311,Ta2H,Ta2H,202.22,175.48,64.733,0.35538,200.29,173.44,63.968,0.35567,201.25,64.351,174.46,0.35552,tetragonal,0,15.3209032,H4
mp-558781,ScTaO4,ScTaO4,178.22,197.17,74.933,0.31562,176.4,183.98,69.365,0.32618,177.31,72.149,190.6,0.32085,monoclinic,4.0277,6.702910185,H2
mp-1037,PrPt5,PrPt5,177.56,191.99,72.733,0.31979,176.87,189.34,71.633,0.32158,177.21,72.183,190.66,0.32068,hexagonal,0,16.27514692,H4
mp-30353,AgPt3,AgPt3,205,181.74,67.2,0.35224,205,161.63,59.048,0.3686,205,63.124,171.74,0.36037,cubic,0,17.89164823,H1a
mp-7586,Ni3C,Ni3C,194.89,189.3,70.733,0.33811,194.88,167.87,61.879,0.35643,194.88,66.306,178.66,0.34721,trigonal,0,7.986648347,H2
mp-865878,Ti2TcNi,Ti2TcNi,176.33,191.98,72.8,0.31854,176.33,190.06,71.973,0.32036,176.33,72.386,191.02,0.31945,cubic,0,7.393033012,H1a
mp-1020622,SrZrO3,SrZrO3,148.78,221.92,88.667,0.2514,139.61,200.66,79.597,0.26046,144.19,84.132,211.3,0.25577,tetragonal,3.4599,5.22363229,H4
mp-1029702,MgTiN2,MgTiN2,161.89,227.65,89.933,0.26564,161.28,172.16,65.109,0.32209,161.59,77.521,200.5,0.2932,orthorhombic,0.6458,3.562500763,H2
mp-5720,Ho(SiRu)2,Ho(SiRu)2,159.44,206.2,80.267,0.28446,157.84,198.49,76.909,0.29041,158.64,78.588,202.35,0.28741,tetragonal,0,8.425942597,H4
mp-961673,TiFeTe,TiFeTe,153,206.55,81,0.275,153,205.15,80.357,0.27652,153,80.679,205.85,0.27576,cubic,1.1247,7.54431667,H5
mp-864919,MgTiRh2,MgTiRh2,162.67,199.97,77.2,0.29512,162.67,199.53,77.005,0.29556,162.67,77.103,199.75,0.29534,cubic,0,7.747611024,H1a
mp-946,PrIr2,PrIr2,172.33,196.95,75.2,0.30952,172.33,190.03,72.186,0.31622,172.33,73.693,193.5,0.31286,cubic,0,15.12767289,H1a
mp-1017591,BaRuO3,BaRuO3,146.56,209.74,83.133,0.26148,146.56,209.74,83.133,0.26148,146.56,83.133,209.74,0.26148,cubic,0,7.086963161,H1a
mp-999118,TcB,TcB,272.78,138.87,49.067,0.41515,264.73,113.38,39.681,0.42862,268.75,44.374,126.18,0.42175,hexagonal,0,8.569973407,H4
mp-865146,MgAsPt5,MgAsPt5,182.11,191.94,72.467,0.32434,181.72,182,68.264,0.33307,181.91,70.366,186.99,0.32868,tetragonal,0,15.63676738,H4
mp-972827,SiBiO3,SiBiO3,166.33,234.32,92.6,0.26521,166.33,157.77,58.785,0.34192,166.33,75.692,197.17,0.30244,cubic,0,8.635714894,H1a
mp-8630,SbIrS,SbIrS,140,217.45,87.6,0.24113,140,209.53,83.774,0.25056,140,85.687,213.5,0.24583,cubic,1.512,10.10502374,H5
mp-1017466,SrMnO3,SrMnO3,193.33,186.91,69.8,0.33887,193.33,171.51,63.42,0.35215,193.33,66.61,179.24,0.34548,cubic,0,5.463879682,H1a
mp-1016846,TiCdO3,TiCdO3,239,149.1,53.4,0.39603,239,145.7,52.096,0.3984,239,52.748,147.4,0.39721,cubic,0.3024,5.889148359,H5
mp-8098,InGaO3,InGaO3,170.11,196.78,75.267,0.30721,169.9,192.7,73.496,0.31097,170.01,74.381,194.74,0.30908,hexagonal,1.3362,6.438646589,H1a
mp-568607,Al5Mo,Al5Mo,120.67,225,94.6,0.18922,120.11,223.67,94.011,0.18962,120.39,94.305,224.34,0.18942,hexagonal,0,4.122876677,H4
mp-20194,CeO2,CeO2,176.33,204.39,78.2,0.30682,176.33,176.3,66.111,0.33336,176.33,72.156,190.48,0.31996,cubic,1.8797,6.994760438,H5
mp-30570,CrGaFe2,CrGaFe2,252,185.14,67.2,0.37755,252,88.569,30.723,0.44142,252,48.961,137.95,0.40876,cubic,0,8.398999801,H1a
mp-2715,CoAs2,CoAs2,133.44,230.47,95.067,0.21215,130.25,205.21,82.917,0.23743,131.85,88.992,217.94,0.22451,monoclinic,0.171,7.358315444,H4
mp-1025357,Lu2Fe2Si2C,Lu2Fe2Si2C,141.56,218.96,88.133,0.2422,140.57,206.03,82.038,0.25571,141.06,85.085,212.53,0.2489,monoclinic,0,8.51918388,H4
mp-12965,ErNi4B,ErNi4B,159.67,201.23,78,0.28995,159.6,200.5,77.677,0.29062,159.63,77.839,200.87,0.29028,hexagonal,0,9.335612234,H4
mp-867919,ErNbRu2,ErNbRu2,180.67,194.4,73.6,0.32066,180.67,179.69,67.34,0.33423,180.67,70.47,187.09,0.32741,cubic,0,11.01218093,H1a
mp-542112,CaZrO3,CaZrO3,208.67,171.22,62.8,0.36324,208.67,164.84,60.235,0.36834,208.67,61.517,168.04,0.36578,cubic,3.2635,4.135496361,H2
mp-999390,NbCr3,NbCr3,167.67,214.17,83.2,0.2871,167.67,176.52,66.633,0.32454,167.67,74.917,195.62,0.30555,cubic,0,7.791975409,H1a
mp-1949,TiMn2,TiMn2,209.89,170.65,62.533,0.36449,209.41,163.9,59.836,0.36955,209.65,61.184,167.28,0.36701,hexagonal,0,6.901373985,H4
mp-10244,Zr3(CuSi)4,Zr3(CuSi)4,145,214.99,85.8,0.25288,144.67,204.7,80.961,0.26418,144.84,83.38,209.87,0.2585,orthorhombic,0,6.394973138,H4
mp-11734,Sr2MgReO6,Sr2MgReO6,159.33,201.62,78.2,0.2891,159.33,200.13,77.53,0.29066,159.33,77.865,200.87,0.28988,cubic,0,6.297398653,H1a
mp-505780,Ge7Ir3,Ge7Ir3,143.67,210.48,83.8,0.25583,143.67,210.48,83.799,0.25583,143.67,83.8,210.48,0.25583,cubic,0,10.58461886,H1a
mp-1129,ScIr,ScIr,165.67,197.76,76,0.30105,165.67,195.47,74.986,0.30335,165.67,75.493,196.61,0.3022,cubic,0,11.65987101,H1a
mp-21851,MnSiIr,MnSiIr,170,203.41,78.2,0.30058,154.72,193.86,75.074,0.29116,162.36,76.637,198.65,0.29607,orthorhombic,0,10.76363747,H4
mp-675734,Li7B18O,Li7B18O,127.89,240.11,101.13,0.18709,127.73,197.76,79.617,0.24195,127.81,90.375,219.41,0.21388,monoclinic,0,1.802291305,H4
mp-28056,P2Rh3,P2Rh3,214.11,167.8,61.267,0.36939,208.82,163.51,59.697,0.3695,211.46,60.482,165.65,0.36944,tetragonal,0,8.643317377,H4
mp-18841,LaCrO3,LaCrO3,111.67,239.48,104.8,0.14256,111.67,215.58,91.485,0.17824,111.67,98.143,227.72,0.16013,cubic,2.1955,6.549860164,H2
mp-753898,LaTmO2,LaTmO2,128.56,221.54,91.333,0.21279,126.12,217.64,89.754,0.21241,127.34,90.544,219.59,0.2126,trigonal,0,9.189649475,H2
mp-929,ZrCo2,ZrCo2,164,197.94,76.2,0.29884,164,196.89,75.732,0.29991,164,75.966,197.42,0.29937,cubic,0,8.422444143,H1a