Material_ID,Formula,pretty_formula,KV ,EV ,GV ,PV ,KR ,ER ,GR ,PR ,bulk,shear,young,poisson,csyst,gap,density,y_cla
mp-867744,LiTi3O4,LiTi3O4,194.22,257.66,100.73,0.2789,192.98,198.8,74.832,0.32831,193.6,87.783,228.77,0.30306,orthorhombic,0,4.744328146,H4
mp-1017544,ZrRu3,ZrRu3,214,228.45,86.4,0.32208,214,201.95,75.201,0.34272,214,80.801,215.3,0.33232,cubic,0,10.42278087,H1a
mp-20983,V2InC,V2InC,154,253.47,103.4,0.22568,153.87,252.47,102.92,0.22654,153.94,103.16,252.97,0.22611,hexagonal,0,7.043103821,H4
mp-865898,TiZnCo2,TiZnCo2,189.33,236.19,91.4,0.29208,189.33,226.41,87.033,0.3007,189.33,89.217,231.32,0.29638,cubic,0,7.796196299,H1a
mp-1025010,Be5Fe,Be5Fe,132.33,268.23,115.4,0.16218,132.33,260.31,111.04,0.17215,132.33,113.22,264.29,0.16714,cubic,0,3.374534452,H1a
mp-567771,Ba(Si3N4)2,Ba(Si3N4)2,152.78,259.19,106.47,0.21725,151.69,248.34,101.19,0.22715,152.23,103.83,253.78,0.22216,orthorhombic,3.2736,3.782118057,H2
mp-12659,Mn2Nb,Mn2Nb,233,204.18,75.4,0.35395,232.43,200.36,73.86,0.35633,232.71,74.63,202.27,0.35514,hexagonal,0,8.479514449,H4
mp-1001916,HfN,HfN,196.33,227.87,87.2,0.30657,196.33,225.37,86.104,0.30869,196.33,86.652,226.62,0.30763,cubic,0,10.80394514,H1a
mp-15397,Ti7Al2O15,Ti7Al2O15,197.56,232.44,89.133,0.3039,196.28,219.54,83.568,0.31357,196.92,86.35,226.01,0.3087,monoclinic,0,4.066013501,H4
mp-1601,TaRu,TaRu,264.44,185.01,66.867,0.3834,263.64,175.41,63.138,0.38911,264.04,65.002,180.22,0.38624,tetragonal,0,14.5626936,H4
mp-865138,Hf2MnIr,Hf2MnIr,196.33,230.59,88.4,0.30425,196.33,222.15,84.698,0.31142,196.33,86.549,226.38,0.30782,cubic,0,14.97080732,H1a
mp-3216,Li2ZrN2,Li2ZrN2,136.67,271.98,116.4,0.16831,127.47,255.95,109.82,0.16534,132.07,113.11,263.97,0.16688,trigonal,1.6072,4.272989517,H2
mp-9801,HfCoAs,HfCoAs,181.67,237.89,92.8,0.28175,181.46,233.56,90.846,0.28548,181.57,91.823,235.73,0.28361,orthorhombic,0,11.54638051,H4
mp-568901,NbFe2,NbFe2,196.56,228.66,87.533,0.30611,194.54,224.91,86.021,0.30731,195.55,86.777,226.78,0.30671,hexagonal,0,8.77038088,H4
mp-978568,Si3MoPt2,Si3MoPt2,184.78,245.63,96.067,0.27844,183.7,222.19,85.562,0.29842,184.24,90.814,234,0.28832,orthorhombic,0,10.53271678,H4
mp-977408,NbTlO3,NbTlO3,177,242.61,95.4,0.27155,177,234.16,91.506,0.27951,177,93.453,238.4,0.27552,cubic,0.3075,8.267313088,H5
mp-8042,ZrGeO4,ZrGeO4,204.67,229.07,87.2,0.31346,198.79,215.96,81.87,0.31893,201.73,84.535,222.52,0.31615,tetragonal,3.7884,5.811092548,H4
mp-864916,Hf2TcRh,Hf2TcRh,190.67,234.19,90.4,0.29529,190.67,224.98,86.308,0.30334,190.67,88.354,229.6,0.2993,cubic,0,13.32236066,H1a
mp-976133,NaAsO3,NaAsO3,100,276.73,133.2,0.038781,100,275.1,132.07,0.041494,100,132.64,275.92,0.040136,cubic,0,4.709481155,H1a
mp-766,As2Ru,As2Ru,151.33,264.86,109.6,0.2083,147.13,244.17,99.793,0.2234,149.23,104.7,254.56,0.2157,orthorhombic,0.5615,8.051426796,H2
mp-867902,LiSiRh2,LiSiRh2,158.33,252.31,102.2,0.23441,158.33,245.87,99.044,0.24119,158.33,100.62,249.1,0.23779,cubic,0,8.189550309,H1a
mp-866033,AlZnRh2,AlZnRh2,185,234.99,91.2,0.2883,185,230.46,89.161,0.29238,185,90.18,232.73,0.29034,cubic,0,9.017765234,H1a
mp-1865,UN,UN,217.67,231.25,87.4,0.32293,217.67,190.72,70.43,0.35397,217.67,78.915,211.22,0.33827,cubic,0,14.46962117,H1a
mp-561442,Y2Hf2O7,Y2Hf2O7,170.67,242.1,95.8,0.26357,170.67,241.01,95.289,0.26464,170.67,95.544,241.56,0.26411,cubic,3.3496,7.366993829,H2
mp-11393,Nb3Ga2,Nb3Ga2,167.22,247.49,98.733,0.25333,166.84,239.55,95.006,0.26071,167.03,96.87,243.53,0.257,tetragonal,0,8.136717878,H4
mp-28897,BIrPd,BIrPd,235.67,215.12,79.8,0.34786,235.64,181.5,66.162,0.37163,235.65,72.981,198.46,0.35964,orthorhombic,0,13.52490505,H4
mp-2287,SiRh,SiRh,196.56,249.75,96.933,0.28823,171.03,215.82,83.671,0.28968,183.79,90.302,232.78,0.28891,monoclinic,0,8.028790452,H4
mp-1954,P3N5,P3N5,153.89,306.01,130.93,0.16858,107.85,220.08,94.869,0.1599,130.87,112.9,263.06,0.16499,orthorhombic,2.6467,3.510957855,H2
mp-3515,Y(CoB)2,Y(CoB)2,151.33,262.91,108.6,0.21045,139.94,247.86,102.86,0.2048,145.64,105.73,255.39,0.20773,tetragonal,0,6.368622795,H4
mp-10714,TmRh3C,TmRh3C,206.33,218.16,82.4,0.32378,206.33,217.92,82.297,0.32398,206.33,82.348,218.04,0.32388,cubic,0,11.27552314,H1a
mp-643,ThO2,ThO2,188.67,236.52,91.6,0.29106,188.67,222.51,85.353,0.30344,188.67,88.477,229.55,0.29722,cubic,4.4644,9.884017018,H2
mp-567458,Ho(PRu)2,Ho(PRu)2,161.89,251.11,101.13,0.24148,158.86,242.69,97.434,0.24539,160.37,99.284,246.9,0.24341,tetragonal,0,9.092111688,H4
mp-977273,MgRh5,MgRh5,197.78,229.14,87.667,0.3069,197.51,217.96,82.805,0.31608,197.65,85.236,223.57,0.31147,monoclinic,0,10.19267994,H4
mp-1008278,Cr3Ni,Cr3Ni,215.33,260.68,100.4,0.29823,215.33,160.05,58.152,0.37612,215.33,79.276,211.83,0.33604,cubic,0,7.839810278,H1a
mp-11407,GaPt3,GaPt3,216.67,214.17,80.2,0.33525,216.67,207.47,77.389,0.34041,216.67,78.794,210.83,0.33783,cubic,0,17.67976062,H1a
mp-1007656,HfPd3,HfPd3,194.67,229.43,88,0.30357,194.67,221.16,84.37,0.31065,194.67,86.185,225.31,0.3071,cubic,0,12.7488839,H1a
mp-975292,RbMoO3,RbMoO3,158.67,249.14,100.6,0.23829,158.67,245.88,99.008,0.24172,158.67,99.804,247.52,0.24,cubic,0,5.722029564,H1a
mp-755759,ZrO2,ZrO2,216.67,235.77,89.4,0.31864,209.46,189.76,70.335,0.349,213.06,79.867,212.99,0.33339,orthorhombic,3.2465,5.816221538,H2
mp-865471,VGaTc2,VGaTc2,229.33,225.06,84.2,0.33644,229.33,178.11,64.978,0.37056,229.33,74.589,201.88,0.35328,cubic,0,9.299074741,H1a
mp-1040467,RbOsO3,RbOsO3,174.67,238.68,93.8,0.27226,174.67,236.44,92.766,0.27439,174.67,93.283,237.56,0.27332,cubic,0,8.563889218,H1a
mp-12058,Er(PRu)2,Er(PRu)2,158.67,251.59,101.8,0.23572,156.69,243.8,98.254,0.24067,157.68,100.03,247.7,0.23818,tetragonal,0,9.179384133,H4
mp-6065,Sr2GaSbO6,Sr2GaSbO6,173.67,240.19,94.6,0.26949,173.67,235.46,92.407,0.27403,173.67,93.504,237.83,0.27176,cubic,0.7323,6.053917303,H5
mp-12537,Ti2GaC,Ti2GaC,139.33,258.61,108.6,0.19066,138.64,256.85,107.81,0.19123,138.99,108.2,257.73,0.19094,hexagonal,0,5.33277263,H4
mp-3055,NdB2Rh3,NdB2Rh3,204.56,243.49,93.533,0.30161,199.54,195.15,72.982,0.337,202.05,83.258,219.61,0.31885,hexagonal,0,9.569086095,H4
mp-977549,Zr2OsRu,Zr2OsRu,193.33,226.05,86.6,0.30513,193.33,224.4,85.873,0.30656,193.33,86.237,225.22,0.30584,cubic,0,11.07151002,H1a
mp-1135,NbPd3,NbPd3,200.22,231.48,88.533,0.30731,200.22,209.53,79.034,0.32558,200.22,83.784,220.58,0.31638,tetragonal,0,10.86895285,H4
mp-672645,TiSiRh,TiSiRh,187.78,233.4,90.267,0.29284,186.19,224.92,86.597,0.29866,186.98,88.432,229.17,0.29573,orthorhombic,0,6.784636781,H4
mp-29742,NdSi2Rh3,NdSi2Rh3,167.11,243.96,97.067,0.25668,163.88,240.89,95.971,0.25502,165.5,96.519,242.43,0.25586,hexagonal,0,8.449491545,H4
mp-867916,ScGaIr2,ScGaIr2,191,230.65,88.8,0.29873,191,222.28,85.098,0.30604,191,86.949,226.48,0.30237,cubic,0,13.45359247,H1a
mp-2725,TbIr2,TbIr2,186,233.83,90.6,0.29047,186,225.5,86.871,0.29794,186,88.735,229.68,0.29419,cubic,0,16.46010585,H1a
mp-11750,Ti6Si2B,Ti6Si2B,149.56,254.74,104.73,0.21612,148.27,249.33,102.21,0.21973,148.91,103.47,252.03,0.21791,hexagonal,0,4.445878802,H4
mp-1025271,AlPPt5,AlPPt5,215.89,221.5,83.333,0.329,214.4,199.14,74.02,0.34519,215.14,78.677,210.38,0.33702,tetragonal,0,15.96930025,H4
mp-5106,TbCoC2,TbCoC2,176.11,248.14,98.067,0.26517,160.59,232.83,92.514,0.25836,168.35,95.29,240.5,0.26191,orthorhombic,0,8.231613546,H4
mp-11501,MnNi3,MnNi3,174,255.98,102,0.25481,174,217.38,84.14,0.29178,174,93.07,236.96,0.27303,cubic,0,8.49819932,H1a
mp-2008,FeAs2,FeAs2,135.44,270.47,115.87,0.16718,131.78,249.11,105.12,0.18494,133.61,110.49,259.85,0.17587,orthorhombic,0.2855,7.424133837,H2
mp-22790,VGaCo2,VGaCo2,197.67,242.07,93.4,0.29589,197.67,200.72,75.416,0.33076,197.67,84.408,221.67,0.31309,cubic,0,8.311592222,H1a
mp-21005,GdIn,GdIn,381.33,96.791,33.2,0.4577,381.33,85.325,29.167,0.46271,381.33,31.183,91.068,0.4602,cubic,0,8.059250637,H1a
mp-1018024,MnFeCoGe,MnFeCoGe,169.67,258.24,103.6,0.24633,169.67,219.79,85.584,0.28409,169.67,94.592,239.3,0.26493,cubic,0,8.604290624,H1a
mp-864877,Hf2CoRe,Hf2CoRe,187.67,229.66,88.6,0.29604,187.67,225.63,86.805,0.29962,187.67,87.703,227.65,0.29783,cubic,0,14.90188575,H1a
mp-446,Cr3Pt,Cr3Pt,242.33,207.4,76.4,0.35736,242.33,174.05,63.046,0.3803,242.33,69.723,190.86,0.36873,cubic,0,11.39555244,H1a
mp-580234,Fe3RhN,Fe3RhN,200,222.44,84.6,0.31464,200,216.38,81.98,0.31969,200,83.29,219.41,0.31716,cubic,0,8.264552114,H1a
mp-567703,Fe3NiN,Fe3NiN,191,233.35,90,0.29638,191,217.06,82.812,0.31059,191,86.406,225.25,0.30345,cubic,0,7.421038441,H1a
mp-3924,LiNbO2,LiNbO2,161.67,270.19,110.6,0.22146,147.08,225.05,90.384,0.24497,154.37,100.49,247.72,0.23255,hexagonal,1.5791,5.527022408,H1a
mp-568792,Si5Rh4,Si5Rh4,181.56,235.97,91.933,0.28338,180.69,226.76,87.836,0.29084,181.12,89.885,231.38,0.28709,monoclinic,0,7.018832554,H4
mp-571428,MgNi3B2,MgNi3B2,191.89,239.6,92.733,0.29189,190.91,209.68,79.607,0.31695,191.4,86.17,224.78,0.30427,hexagonal,0,6.130455355,H4
mp-753315,Mg3ZnO4,Mg3ZnO4,155.89,253.9,103.33,0.22855,155.89,239.3,96.17,0.24415,155.89,99.752,246.65,0.2363,orthorhombic,3.1534,4.290882771,H2
mp-2302,AsRh2,AsRh2,231.67,205.53,76,0.35214,231.67,189.96,69.667,0.36334,231.67,72.833,197.77,0.35772,cubic,0,9.77548197,H1a
mp-974616,Pt3Rh,Pt3Rh,223.11,206.36,76.667,0.34584,222.94,200.66,74.32,0.34999,223.02,75.494,203.52,0.34791,tetragonal,0,18.57543016,H4
mp-11557,ScRe2,ScRe2,225.89,204.85,75.933,0.34886,225.87,198.21,73.207,0.35375,225.88,74.57,201.53,0.3513,hexagonal,0,13.22801383,H4
mp-19097,FeBO3,FeBO3,180.44,245.63,96.467,0.27313,167.59,225.44,88.352,0.2758,174.02,92.409,235.54,0.27441,trigonal,1.5459,4.108906965,H2
mp-10141,SmB2,SmB2,136.33,264.51,112.4,0.17664,135.29,249.98,104.86,0.19205,135.81,108.63,257.29,0.18427,hexagonal,0,7.359401434,H4
mp-755253,LiZrO2,LiZrO2,161.56,257.96,104.53,0.23388,148.44,235.4,95.25,0.23569,155,99.892,246.68,0.23475,tetragonal,0,5.093783946,H4
mp-754157,AlInO3,AlInO3,184.33,232.65,90.2,0.28965,184.3,224.79,86.677,0.29671,184.32,88.438,228.73,0.29317,hexagonal,2.169,5.613715616,H1b
mp-3271,Ti3AlC,Ti3AlC,152.67,252.27,103,0.2246,152.67,243.52,98.661,0.23414,152.67,100.83,247.91,0.22935,cubic,0,4.14816078,H1a
mp-1018067,CrFe3,CrFe3,184,247.94,97.2,0.27542,184,209.17,79.804,0.31053,184,88.502,228.82,0.29274,cubic,0,7.981657005,H1a
mp-1025272,ZnPPt5,ZnPPt5,211.89,214.91,80.733,0.33096,211.8,205.85,76.924,0.33802,211.85,78.829,210.39,0.33448,tetragonal,0,16.48231783,H4
mp-4248,YCoC2,YCoC2,175.33,246.97,97.6,0.26523,159.11,231.08,91.847,0.25795,167.22,94.723,239.04,0.26176,orthorhombic,0,5.877646778,H4
mp-363,NbGe2,NbGe2,143.44,255.28,106.07,0.20339,140.78,251.35,104.52,0.20243,142.11,105.29,253.32,0.20292,hexagonal,0,7.967848182,H4
mp-755690,NbO2,NbO2,197.22,273.84,107.93,0.26858,164.08,186.41,71.114,0.31066,180.65,89.523,230.5,0.28735,tetragonal,0,5.595992831,H4
mp-867330,Al2FeNi,Al2FeNi,167.33,254.74,102.2,0.24628,167.33,222.32,86.942,0.27856,167.33,94.571,238.74,0.26221,cubic,0,5.904564256,H1a
mp-1025067,ReGe2,ReGe2,159.56,254.96,103.33,0.23368,154.94,234.26,93.855,0.248,157.25,98.594,244.65,0.24069,monoclinic,0,11.17521498,H4
mp-2488,SiOs,SiOs,210.67,261.7,101.2,0.29296,210.67,156.51,56.863,0.37618,210.67,79.031,210.74,0.33327,cubic,0.6209,13.16049189,H5
mp-1076,KB6,KB6,137.33,266.03,113,0.17714,137.33,244.86,101.78,0.20284,137.33,107.39,255.56,0.18985,cubic,0,2.288806586,H1a
mp-569089,Dy(PRu)2,Dy(PRu)2,159,249.24,100.6,0.23875,154.83,240.11,96.7,0.24154,156.92,98.65,244.68,0.24012,tetragonal,0,9.007513792,H4
mp-12109,ZrRe2,ZrRe2,251.33,185.61,67.4,0.37692,251.33,179.66,65.052,0.38086,251.33,66.226,182.64,0.37889,hexagonal,0,14.50078021,H4
mp-865385,V3Re,V3Re,236.33,198.06,72.8,0.36032,236.33,187.9,68.703,0.36749,236.33,70.752,193,0.3639,cubic,0,10.27218635,H1a
mp-18946,VBO3,VBO3,187.89,236.68,91.733,0.29005,175.75,221.84,86.008,0.28963,181.82,88.87,229.26,0.28985,trigonal,1.8733,3.87586859,H2
mp-557057,NbO2,NbO2,207.33,218.28,82.4,0.32453,205.41,208.13,78.179,0.33112,206.37,80.29,213.22,0.3278,tetragonal,0.2999,5.675253089,H1a
mp-1009077,FeH,FeH,176.67,233,91,0.28019,176.67,231.74,90.426,0.28138,176.67,90.713,232.37,0.28079,cubic,0,7.098567613,H1a
mp-19357,LaCrO3,LaCrO3,171.89,238.38,93.933,0.26886,169.37,233.79,92.046,0.26994,170.63,92.989,236.08,0.2694,trigonal,0,6.500892303,H2
mp-1016903,CdGeO3,CdGeO3,182,231.79,90,0.28774,182,226.08,87.429,0.29296,182,88.714,228.94,0.29034,cubic,0.134,7.150943527,H5
mp-865209,TmHfOs2,TmHfOs2,184.67,227.81,88,0.29439,184.67,226.49,87.407,0.29559,184.67,87.703,227.15,0.29499,cubic,0,16.75890637,H1a
mp-2663,Nb3Pt,Nb3Pt,207,224.76,85.2,0.31903,207,200.1,74.725,0.33889,207,79.963,212.52,0.32889,cubic,0,11.15047743,H1a
mp-1439,TiO2,TiO2,205,220.79,83.6,0.3205,202.5,208.42,78.446,0.32846,203.75,81.023,214.62,0.32444,orthorhombic,2.5534,4.200280353,H2
mp-33581,Ba9Nb10O30,Ba9Nb10O30,169.78,239.06,94.467,0.26532,169.78,233.7,91.967,0.27058,169.78,93.217,236.39,0.26794,triclinic,0,6.210149176,H4
mp-864840,NbZnRu2,NbZnRu2,218,216.22,81,0.33469,218,193.65,71.617,0.35195,218,76.309,205.01,0.34327,cubic,0,9.996395274,H1a
mp-865895,GaGeRu2,GaGeRu2,210.67,213.51,80.2,0.33109,210.67,206.36,77.189,0.33674,210.67,78.694,209.94,0.33391,cubic,0,10.27049898,H1a
mp-2932,Y2Si4Mo3,Y2Si4Mo3,156.11,246.13,99.467,0.23723,156.06,242.67,97.785,0.24083,156.08,98.626,244.4,0.23903,monoclinic,0,6.293802856,H4
mp-24728,VH2,VH2,175,233.11,91.2,0.27799,175,232.82,91.069,0.27827,175,91.135,232.96,0.27813,cubic,0,4.69763552,H1a
mp-555,Fe8N,Fe8N,183.11,232.14,90.067,0.28871,181.8,224.2,86.6,0.29446,182.46,88.333,228.18,0.29157,tetragonal,0,7.568512823,H4
mp-569247,Zr(FeSi)2,Zr(FeSi)2,182.89,231.8,89.933,0.28876,182.65,224.11,86.496,0.29551,182.77,88.214,227.97,0.29212,tetragonal,0,6.214693673,H4
mp-5407,TiAlCo2,TiAlCo2,177.67,239.72,94,0.27512,177.67,222.33,86.078,0.29144,177.67,90.039,231.08,0.28323,cubic,0,6.450357866,H1a
mp-19821,Cr2GeC,Cr2GeC,202.11,216.85,82.067,0.32118,202.02,213.77,80.751,0.32364,202.06,81.409,215.31,0.32241,hexagonal,0,6.955160778,H4
mp-865027,Mn3Ge,Mn3Ge,190,250.43,97.8,0.28032,190,194.46,73.137,0.32942,190,85.468,222.97,0.30441,cubic,0,8.236936809,H1a
mp-2179,TiRe,TiRe,231.67,198.18,73,0.35742,231.67,191.44,70.266,0.36227,231.67,71.633,194.82,0.35984,cubic,0,12.81342351,H1a
mp-550908,SrHfO3,SrHfO3,157.89,246.34,99.333,0.23997,154.54,240.96,97.151,0.24013,156.21,98.242,243.65,0.24004,tetragonal,3.6764,7.490189272,H4
mp-23803,GaHO2,GaHO2,176.78,235.78,92.267,0.27771,172.01,229,89.587,0.27811,174.39,90.927,232.39,0.27791,orthorhombic,3.0069,5.184996923,H2
mp-5438,TmBRh3,TmBRh3,184.67,233.15,90.4,0.28957,184.67,217.93,83.605,0.30331,184.67,87.003,225.58,0.29641,cubic,0,11.04913068,H1a
mp-755441,SrTaNO2,SrTaNO2,170.33,240.32,95,0.26485,168.51,229.91,90.332,0.2726,169.42,92.666,235.13,0.26869,monoclinic,0.982,7.76649499,H4
mp-8001,LiAlO2,LiAlO2,147.11,276.07,116.27,0.18723,136.92,225.4,91.953,0.22563,142.01,104.11,250.99,0.20543,trigonal,6.1272,3.295159284,H2
mp-978490,SiPdO3,SiPdO3,221.67,234.55,88.6,0.32365,221.67,166.04,60.369,0.37516,221.67,74.485,200.95,0.34891,cubic,0,6.504851023,H1a
mp-695,TiCo2,TiCo2,167.33,237.1,93.8,0.26385,167.33,235.26,92.938,0.26568,167.33,93.369,236.18,0.26476,cubic,0,7.522615689,H1a
mp-13109,SrHfO3,SrHfO3,168.78,237.99,94.067,0.26499,165.26,234.74,92.911,0.26326,167.02,93.489,236.37,0.26413,orthorhombic,3.9894,7.493388154,H2
mp-1150,URh3,URh3,217.33,203.72,75.8,0.34378,217.33,203.69,75.787,0.3438,217.33,75.794,203.7,0.34379,cubic,0,13.86021579,H1a
mp-865877,Ti2RePt,Ti2RePt,208.67,216.1,81.4,0.3274,208.67,202.71,75.746,0.33809,208.67,78.573,209.43,0.33272,cubic,0,12.83600172,H1a
mp-10457,HfSiPd,HfSiPd,169.56,239.15,94.533,0.26492,169.03,230.32,90.473,0.2729,169.29,92.503,234.75,0.26889,orthorhombic,0,10.62009759,H4
mp-867828,BeNbRu2,BeNbRu2,230.33,194.63,71.6,0.35917,230.33,194.53,71.559,0.35924,230.33,71.579,194.58,0.3592,cubic,0,9.10351761,H1a
mp-2733,Al8Mo3,Al8Mo3,141.89,256.01,106.73,0.19929,141.29,245.38,101.35,0.21054,141.59,104.04,250.72,0.20488,monoclinic,0,5.003746922,H4
mp-16334,Fe3PdN,Fe3PdN,187.67,224.26,86.2,0.30083,187.67,221.74,85.083,0.30307,187.67,85.642,223,0.30195,cubic,0,8.274119291,H1a
mp-755875,Ti3O4,Ti3O4,179.78,250.22,98.667,0.26803,176.48,207.39,79.512,0.30414,178.13,89.089,229.08,0.28566,orthorhombic,0,4.712897152,H4
mp-5918,Hf2NiP,Hf2NiP,167.33,240.5,95.4,0.26046,166.05,231.83,91.467,0.26731,166.69,93.433,236.17,0.26386,monoclinic,0,11.39762304,H4
mp-972275,Ti2ReRu,Ti2ReRu,178.67,230.74,89.8,0.28476,178.67,226.69,87.962,0.28854,178.67,88.881,228.72,0.28664,cubic,0,10.6434725,H1a
mp-6988,FeN,FeN,267.33,201.74,73.4,0.37423,267.33,134.25,47.396,0.4163,267.33,60.398,168.5,0.39495,cubic,0,6.127073258,H1a
mp-865779,Ga2CoRu,Ga2CoRu,188.33,223.92,86,0.30184,188.33,220.54,84.509,0.30483,188.33,85.255,222.23,0.30334,cubic,0,9.531774947,H1a
mp-2979,ZnGeN2,ZnGeN2,163.11,240.91,96.067,0.25384,163.05,234.89,93.219,0.25989,163.08,94.643,237.91,0.25686,orthorhombic,1.6966,5.868837112,H2
mp-19835,Nb2InC,Nb2InC,157.89,242.23,97.333,0.24431,157.89,239.69,96.107,0.24698,157.89,96.72,240.96,0.24564,hexagonal,0,8.050504713,H4
mp-540791,Si4Rh3,Si4Rh3,179.67,231.81,90.2,0.28497,179.26,223.35,86.411,0.29235,179.46,88.306,227.59,0.28864,orthorhombic,0,6.889453955,H4
mp-22266,GdB6,GdB6,171.33,282.72,115.4,0.22498,171.33,178.45,67.268,0.32641,171.33,91.334,232.66,0.27368,cubic,0,5.311473692,H1a
mp-7558,TaGe2,TaGe2,145.78,250.62,103.27,0.21347,143.3,245.95,101.3,0.21396,144.54,102.28,248.28,0.21371,hexagonal,0,10.98547288,H4
mp-3721,SrHfO3,SrHfO3,162.11,243.58,97.467,0.24957,156.26,235.65,94.364,0.24865,159.19,95.915,239.62,0.24912,tetragonal,4.0567,7.491653479,H4
mp-11283,ZrBe5,ZrBe5,126.22,266.63,116.13,0.14794,126.16,248.23,105.89,0.17207,126.19,111.01,257.52,0.15988,hexagonal,0,3.623393534,H4
mp-1014993,CrN2,CrN2,207.33,228.05,86.6,0.31668,207.33,189.3,70.222,0.34783,207.33,78.411,208.9,0.33207,cubic,0,4.929940295,H1a
mp-18937,V2O3,V2O3,202.22,213.75,80.733,0.32383,202.07,210.96,79.546,0.326,202.14,80.14,212.36,0.32491,trigonal,0.4888,4.643588619,H2
mp-672259,AlFe2Mo,AlFe2Mo,225,224.11,84,0.33399,225,168.87,61.412,0.37491,225,72.706,196.91,0.35414,cubic,0,7.741150965,H1a
mp-1009836,ZrN,ZrN,249.33,242.91,90.8,0.33763,249.33,113.03,39.675,0.42444,249.33,65.238,180.01,0.37967,cubic,0,7.518393719,H1a
mp-1014251,HfZnN2,HfZnN2,184.67,237.58,92.4,0.28558,184.32,209.82,80.067,0.31027,184.49,86.233,223.83,0.2978,trigonal,2.2797,9.189653093,H2
mp-834,ThN,ThN,178.33,231.56,90.2,0.28359,178.33,223.73,86.656,0.29091,178.33,88.428,227.66,0.28724,cubic,0,11.78644123,H1a
mp-1451,NbNi3,NbNi3,210.89,213.37,80.133,0.33137,210.66,199.26,74.219,0.34236,210.78,77.176,206.34,0.33684,orthorhombic,0,8.950269576,H4
mp-22312,Nb4FeSi,Nb4FeSi,191.22,220.12,84.133,0.30815,191.18,218.48,83.418,0.30953,191.2,83.776,219.3,0.30884,tetragonal,0,7.735944184,H4
mp-4627,CoAsS,CoAsS,139.22,255.41,106.93,0.19424,139.21,245.6,101.82,0.20597,139.22,104.38,250.53,0.20008,orthorhombic,0.8586,6.325299784,H2
mp-1014227,Ti2ZnN,Ti2ZnN,150.67,248.06,101.2,0.2256,147.85,241.82,98.507,0.22741,149.26,99.853,244.94,0.22649,orthorhombic,0,5.650048203,H4
mp-2132,CrN,CrN,181,226.29,87.6,0.29163,181,225.13,87.08,0.29269,181,87.34,225.71,0.29216,cubic,0,6.145946676,H1a
mp-978554,SmRe3,SmRe3,213,215.66,81,0.33125,213,193.42,71.71,0.34865,213,76.355,204.61,0.33989,cubic,0,16.88162586,H1a
mp-12550,AlCuPt2,AlCuPt2,196.33,225.59,86.2,0.3085,196.07,205.81,77.66,0.32506,196.2,81.93,215.76,0.31672,tetragonal,0,14.1301705,H4
mp-608,TiCo3,TiCo3,194,235.19,90.6,0.29795,194,198.76,74.764,0.32924,194,82.682,217.19,0.31341,cubic,0,7.948540457,H1a
mp-8682,Ca2SiO4,Ca2SiO4,152.56,246.88,100.33,0.23029,151.41,239.59,96.902,0.23627,151.99,98.618,243.24,0.23326,tetragonal,4.3847,3.743683367,H4
mp-1157,TaNi2,TaNi2,214.11,236.05,89.667,0.31626,213.8,170.35,62.297,0.36721,213.96,75.982,203.82,0.34123,tetragonal,0,12.49427135,H4
mp-13446,Co2P,Co2P,225.67,155.17,56,0.3854,223.87,235.86,89.042,0.32441,224.77,72.521,196.44,0.35434,hexagonal,0,7.661609401,H4
mp-19845,TiPbO3,TiPbO3,171,232.3,91.2,0.27358,171,231.06,90.629,0.27479,171,90.914,231.68,0.27419,cubic,1.7601,8.048700857,H5