Material_ID,Formula,pretty_formula,KV ,EV ,GV ,PV ,KR ,ER ,GR ,PR ,bulk,shear,young,poisson,csyst,gap,density,y_cla
mp-10259,Zr(NiP)2,Zr(NiP)2,177.44,166.76,62.067,0.34337,177.44,144.68,53.032,0.3641,177.44,57.549,155.8,0.35366,tetragonal,0,6.850455325,H4
mp-30147,ZrTiAs,ZrTiAs,137.89,192.9,76.133,0.26684,137.8,170.5,65.893,0.29378,137.85,71.013,181.82,0.28017,tetragonal,0,6.617444499,H4
mp-22801,LuSiRh,LuSiRh,140.33,184.89,72.2,0.28041,140.1,175.67,68.035,0.29102,140.22,70.117,180.3,0.28569,orthorhombic,0,9.744034982,H4
mp-766454,TiO2,TiO2,168.11,195.57,74.867,0.30611,142.07,145.63,54.783,0.32916,155.09,64.825,170.69,0.31657,monoclinic,2.2272,3.907890037,H2
mp-679,Er2O3,Er2O3,148,176.45,67.8,0.30129,148,173.71,66.589,0.30438,148,67.194,175.09,0.30283,cubic,3.9817,8.653693642,H2
mp-3887,Li3GaN2,Li3GaN2,98.667,205.63,89.2,0.15265,98.667,201.46,86.857,0.1597,98.667,88.029,203.55,0.15616,cubic,2.3783,3.477730011,H2
mp-20956,Gd(SiNi)2,Gd(SiNi)2,132.89,190.08,75.333,0.2616,130.96,180.26,70.934,0.2706,131.93,73.134,185.18,0.26605,tetragonal,0,7.289806431,H4
mp-33708,Mn(FeO2)2,Mn(FeO2)2,162,169.19,63.8,0.32594,161.79,162.54,60.99,0.33255,161.89,62.395,165.87,0.32923,orthorhombic,0,4.778070911,H4
mp-3190,Er(FeB)2,Er(FeB)2,117.22,196.98,80.733,0.21994,117.16,190.62,77.561,0.22883,117.19,79.147,193.81,0.22437,tetragonal,0,8.298256699,H4
mp-10343,Sc2BC2,Sc2BC2,138.89,222.72,90.333,0.23274,137.29,136.52,51.159,0.33427,138.09,70.746,181.28,0.28121,tetragonal,0,3.474998578,H4
mp-1020703,SiGeN2O,SiGeN2O,124.44,200.62,81.467,0.23131,122.15,179.71,71.61,0.25479,123.3,76.538,190.25,0.24283,monoclinic,3.4637,3.679682566,H2
mp-903,ZrCr2,ZrCr2,181,153.28,56.4,0.35886,181,152.4,56.044,0.35967,181,56.222,152.84,0.35926,cubic,0,7.10910703,H1a
mp-5532,Sr2TiO4,Sr2TiO4,126.78,188.92,75.467,0.25165,126.78,187.42,74.753,0.2536,126.78,75.11,188.17,0.25262,tetragonal,1.9442,4.873252813,H1a
mvc-15605,AlWO3,AlWO3,134.89,183.23,71.933,0.2736,134.88,183.22,71.928,0.2736,134.88,71.931,183.22,0.2736,cubic,0,6.539337831,H1a
mp-15178,Lu4C7,Lu4C7,128.33,192.92,77.2,0.24946,124.33,183.73,73.276,0.2537,126.33,75.238,188.33,0.25154,monoclinic,0,8.797273223,H4
mp-1025212,InAsPt5,InAsPt5,160.56,169.79,64.133,0.32374,160.29,163.5,61.464,0.33,160.42,62.799,166.65,0.32686,tetragonal,0,16.34217285,H4
mp-864987,MnZnRh2,MnZnRh2,168.33,199.08,76.4,0.30289,168.33,121.32,43.959,0.37988,168.33,60.18,161.32,0.34028,cubic,0,9.761315699,H1a
mp-1705,Sb2O5,Sb2O5,127.89,199.28,80.333,0.2403,125.85,176.2,69.552,0.26665,126.87,74.943,187.84,0.25323,monoclinic,0.7918,6.365802423,H4
mp-865786,CrPd3,CrPd3,154.33,186.03,71.6,0.2991,154.33,154.36,57.888,0.3333,154.33,64.744,170.4,0.31598,cubic,0,10.27041432,H1a
mp-865609,LuGaRh2,LuGaRh2,165,163.4,61.2,0.33495,165,163.12,61.083,0.33523,165,61.142,163.26,0.33509,cubic,0,11.54656215,H1a
mp-4784,CaPtO3,CaPtO3,147.44,185.91,72.067,0.28985,145.06,165.07,62.988,0.31034,146.25,67.527,175.56,0.29993,orthorhombic,1.3668,7.918127669,H2
mp-30177,Y(Al2Cr)4,Y(Al2Cr)4,119.56,195.29,79.533,0.22775,119.49,188.54,76.208,0.23702,119.52,77.871,191.93,0.23237,tetragonal,0,4.23613908,H4
mp-556464,SiO2,SiO2,135.78,188.44,74.267,0.26869,135.18,176.09,68.628,0.2829,135.48,71.447,182.3,0.27574,trigonal,4.0501,2.666282663,H2
mp-601285,MnGaNi2,MnGaNi2,158.22,191.01,73.533,0.2988,157.58,143.74,53.316,0.34798,157.9,63.425,167.81,0.32288,tetragonal,0,8.278075803,H4
mp-5163,LaRhO3,LaRhO3,173.33,170.96,64,0.33562,172.84,143.61,52.739,0.36152,173.09,58.369,157.41,0.34843,orthorhombic,0.5966,7.464202806,H2
mp-5948,Th(CuSi)2,Th(CuSi)2,130.78,190.72,75.867,0.25694,130.63,179.1,70.428,0.2715,130.71,73.147,184.94,0.26418,tetragonal,0,8.290632541,H4
mp-15819,Mn3Al9Si,Mn3Al9Si,117,193.46,79,0.22442,116.94,192.59,78.573,0.22552,116.97,78.786,193.02,0.22497,hexagonal,0,3.905078234,H4
mp-571491,HoB6,HoB6,175.33,240.11,94.4,0.27176,175.33,60.117,20.833,0.44285,175.33,57.616,155.78,0.35192,cubic,0,5.574852156,H1a
mp-2614,HfAl3,HfAl3,107,205.72,87.2,0.17957,106.74,191.06,79.499,0.20168,106.87,83.35,198.46,0.19051,tetragonal,0,6.195578186,H4
mp-6940,U2IrC2,U2IrC2,195.89,157.71,57.733,0.36582,194.14,126.11,45.308,0.39173,195.02,51.521,142.05,0.3786,tetragonal,0,15.22388062,H4
mp-22490,Sc3(NiGe)4,Sc3(NiGe)4,126.67,188.33,75.2,0.2522,126.66,186.02,74.099,0.25522,126.66,74.649,187.18,0.25371,orthorhombic,0,6.507737492,H4
mp-823,TiCo,TiCo,163.33,163.69,61.4,0.33297,163.33,163.67,61.391,0.33299,163.33,61.396,163.68,0.33298,cubic,0,6.714495322,H1a
mp-973004,ScRu3,ScRu3,206,147.46,53.4,0.3807,206,120.56,42.982,0.40246,206,48.191,134.11,0.39149,cubic,0,9.463758239,H1a
mp-29658,ZrNiH3,ZrNiH3,152.44,179.11,68.667,0.30418,149.51,164.37,62.413,0.31677,150.98,65.54,171.76,0.31038,orthorhombic,0,6.340586405,H4
mp-12737,YB2Rh2C,YB2Rh2C,202.33,159.32,58.2,0.36876,202.33,113.3,40.272,0.40667,202.33,49.236,136.63,0.38746,tetragonal,0,7.272414812,H4
mp-31459,TaCoSb,TaCoSb,163,167.43,63,0.3288,163,160.02,59.87,0.33638,163,61.435,163.73,0.33258,cubic,0,11.2959712,H1a
mp-972327,Zr2CoOs,Zr2CoOs,144,177.15,68.4,0.29496,144,175.23,67.542,0.29719,144,67.971,176.19,0.29608,cubic,0,10.34531081,H1a
mp-30182,ThAl3Ni2,ThAl3Ni2,128.11,187.98,74.867,0.25544,127.42,184.49,73.285,0.2587,127.77,74.076,186.24,0.25706,hexagonal,0,7.187351917,H4
mp-1025349,Sr2ZrO4,Sr2ZrO4,137.67,183.5,71.8,0.27785,136.09,177.52,69.204,0.2826,136.88,70.502,180.51,0.2802,tetragonal,3.1054,4.900873873,H4
mp-37473,TiOF2,TiOF2,136.33,218.47,88.6,0.23292,133.43,142.23,53.778,0.32235,134.88,71.189,181.62,0.27559,tetragonal,1.832,2.960624497,H1a
mp-1553,HoNi5,HoNi5,135.89,183.87,72.133,0.27449,134.31,179.07,70.07,0.27779,135.1,71.102,181.47,0.27613,hexagonal,0,9.452775549,H4
mp-864974,Hf2CuOs,Hf2CuOs,175.33,167.83,62.6,0.34047,175.33,141.79,51.928,0.36522,175.33,57.264,154.93,0.35273,cubic,0,14.72346347,H1a
mp-867780,Al3Cr,Al3Cr,107,209.78,89.4,0.17325,106.97,185.07,76.371,0.21165,106.98,82.885,197.62,0.19213,tetragonal,0,3.815305682,H4
mp-22426,ScSiNi,ScSiNi,133.11,186.15,73.467,0.26692,131.67,179.85,70.677,0.27234,132.39,72.072,183.01,0.26961,orthorhombic,0,4.873667826,H4
mp-1025386,HgPPt5,HgPPt5,183.78,164.93,61.067,0.35042,181.9,134.07,48.677,0.37716,182.84,54.872,149.65,0.36359,tetragonal,0,17.49760587,H4
mp-567636,VFeSb,VFeSb,160.33,171.79,65,0.32143,160.33,157.9,59.102,0.33586,160.33,62.051,164.88,0.3286,cubic,0.5303,7.823725416,H5
mp-567705,TiAl2,TiAl2,108.56,197.92,82.733,0.19613,108.56,195.33,81.381,0.2001,108.56,82.057,196.63,0.19811,tetragonal,0,3.536390592,H4
mp-1221,V3Ge,V3Ge,184,149.06,54.6,0.36499,184,148.2,54.255,0.36576,184,54.428,148.63,0.36537,cubic,0,6.916313128,H1a
mp-4997,ZrGeS,ZrGeS,119.22,192.78,78.333,0.2305,119.1,188.43,76.207,0.23631,119.16,77.27,190.61,0.2334,tetragonal,0,6.003315238,H4
mp-11279,TiBe,TiBe,125.67,205.68,83.8,0.22721,125.67,167.02,65.318,0.27849,125.67,74.559,186.74,0.25233,cubic,0,3.752193567,H1a
mp-961646,TiTeOs,TiTeOs,173.33,156.05,57.8,0.34995,173.33,155.74,57.672,0.35025,173.33,57.736,155.9,0.3501,cubic,0.56,10.34059269,H5
mp-8540,NdRhC2,NdRhC2,146.44,186.62,72.467,0.28761,127.77,172.73,67.752,0.27469,137.11,70.11,179.7,0.28156,orthorhombic,0,7.713462166,H4
mp-5881,CoSbS,CoSbS,115.78,195.99,80.467,0.21786,115.73,188.82,76.877,0.22808,115.76,78.672,192.42,0.22295,orthorhombic,0.405,6.929478523,H2
mp-31756,Ba2FeReO6,Ba2FeReO6,124.56,193.04,77.733,0.24169,124.55,181.17,72.03,0.25758,124.56,74.882,187.14,0.24959,cubic,0,7.491925993,H1a
mp-642644,V2H,V2H,191.67,176.65,65.6,0.34639,190.56,108.59,38.644,0.40502,191.11,52.122,143.34,0.375,monoclinic,0,5.912611102,H4
mp-1910,CeNi5,CeNi5,150.78,173.4,66.267,0.30833,150.46,168.2,64.016,0.31369,150.62,65.142,170.8,0.311,hexagonal,0,8.791113399,H4
mp-20940,TiCdO3,TiCdO3,150.22,178.01,68.333,0.3025,145.25,167.31,63.957,0.30802,147.74,66.145,172.67,0.30521,orthorhombic,2.4636,6.02935245,H2
mp-1007691,HfPt,HfPt,184,175.42,65.4,0.34111,173.09,128.05,46.504,0.37671,178.55,55.952,151.98,0.35813,orthorhombic,0,16.38616664,H4
mp-866314,Ca5Al2(SiN4)2,Ca5Al2(SiN4)2,126.22,188.5,75.333,0.2511,125.99,183.78,73.111,0.25688,126.11,74.222,186.15,0.25398,orthorhombic,2.7948,3.140460891,H2
mp-30764,LiPt2,LiPt2,136.67,188.49,74.2,0.27014,136.67,170.59,66.019,0.29197,136.67,70.109,179.61,0.28096,cubic,0,12.74768504,H1a
mp-1008285,Cr3Fe,Cr3Fe,253.33,159.59,57.2,0.39501,253.33,34.154,11.558,0.47753,253.33,34.379,98.673,0.43508,cubic,0,7.713668537,H1a
mp-861909,CdGaRh2,CdGaRh2,161.33,166.29,62.6,0.32821,161.33,160.88,60.311,0.3338,161.33,61.455,163.59,0.331,cubic,0,10.38600861,H1a
mp-18972,Sr2VO4,Sr2VO4,131.11,189.53,75.267,0.25907,129.41,177.44,69.775,0.27148,130.26,72.521,183.51,0.26521,tetragonal,0,5.060629762,H4
mp-1003637,LiMn3O6,LiMn3O6,141.22,195.76,77.133,0.26897,119.97,170.8,67.63,0.26272,130.6,72.382,183.28,0.26609,monoclinic,0.3113,4.350042691,H4
mp-5274,ThTi2O6,ThTi2O6,157.89,178.24,67.933,0.31185,156.54,153.78,57.539,0.33628,157.22,62.736,166.11,0.3239,monoclinic,3.0087,5.935302147,H2
mp-16735,CrInCo2,CrInCo2,163.33,180.53,68.6,0.31579,163.33,142.91,52.766,0.35417,163.33,60.683,161.99,0.33471,cubic,0,8.848960816,H1a
mp-2483,DyMn2,DyMn2,116,246.21,107.4,0.14625,115.98,129.18,49.139,0.31437,115.99,78.27,191.69,0.22456,cubic,0,9.609270301,H1a
mp-961682,TiSnPd,TiSnPd,118.67,191.54,77.8,0.23098,118.67,188.77,76.431,0.23488,118.67,77.116,190.16,0.23293,cubic,0.2387,7.554323087,H5
mp-752953,ZrTi2O,ZrTi2O,134.44,185.58,73.067,0.26994,132.46,176.98,69.276,0.27732,133.45,71.171,181.29,0.27359,orthorhombic,0,5.532622802,H4
mp-20565,MnCoGe,MnCoGe,164.22,173.99,65.733,0.32342,158.7,152.22,56.794,0.34013,161.46,61.264,163.16,0.33158,hexagonal,0,8.307566216,H4
mp-862730,LiGaRh2,LiGaRh2,150,171.3,65.4,0.30966,150,170.15,64.897,0.31094,150,65.148,170.73,0.3103,cubic,0,8.83380159,H1a
mp-976818,Ni3Au,Ni3Au,176,166.93,62.2,0.34192,175.92,139.46,50.975,0.36788,175.96,56.587,153.33,0.35477,tetragonal,0,12.26948444,H4
mp-8577,Sc3GaC,Sc3GaC,100.33,200.67,86,0.16667,100.33,199.17,85.179,0.16915,100.33,85.589,199.92,0.16791,cubic,0,3.991578136,H1a
mp-15779,Mg2SiNi3,Mg2SiNi3,127.33,188.49,75.2,0.25328,126.61,181.86,72.133,0.2606,126.97,73.666,185.19,0.25692,trigonal,0,5.278673367,H2
mp-18875,MgWO4,MgWO4,137.44,183.16,71.667,0.27789,134.71,175.88,68.574,0.28239,136.07,70.121,179.52,0.28012,monoclinic,3.7025,6.570296974,H2
mvc-15989,YWO3,YWO3,175.56,157.06,58.133,0.35089,174.4,150.55,55.508,0.35612,174.98,56.821,153.81,0.35349,hexagonal,0,7.443403045,H4
mp-761524,MgCoO3,MgCoO3,146.56,177.87,68.533,0.29772,145.1,168.46,64.468,0.30651,145.83,66.501,173.18,0.30208,trigonal,0,4.569557285,H2
mp-866285,ErSnRu2,ErSnRu2,148.33,171.52,65.6,0.30729,148.33,171.51,65.596,0.30729,148.33,65.598,171.51,0.30729,cubic,0,11.35616712,H1a
mp-21117,FeGe2,FeGe2,120.33,196.86,80.2,0.22733,120.06,180.74,72.346,0.2491,120.2,76.273,188.87,0.23811,tetragonal,0,7.718265126,H4
mp-3605,Th(CoGe)2,Th(CoGe)2,148.78,173.1,66.267,0.30609,148.78,169.16,64.539,0.3105,148.78,65.403,171.13,0.30829,tetragonal,0,9.732029585,H4
mp-5176,Y(SiNi)2,Y(SiNi)2,135.89,182.57,71.533,0.27609,135.69,175.91,68.505,0.28393,135.79,70.019,179.25,0.27999,tetragonal,0,5.761594198,H4
mp-3203,NdTaO4,NdTaO4,149.33,176.21,67.6,0.30334,144.03,167.8,64.252,0.30582,146.68,65.926,172.01,0.30456,monoclinic,3.95,7.951862888,H2
mp-15985,Zr3(Cu2Ge)2,Zr3(Cu2Ge)2,132.78,187.36,74.067,0.26482,132.48,173.95,67.887,0.28116,132.63,70.977,180.7,0.27293,hexagonal,0,7.700253219,H4
mp-11436,Er(VGa2)2,Er(VGa2)2,127.11,190.25,76.067,0.25055,126.81,177.94,70.268,0.26614,126.96,73.167,184.13,0.25829,tetragonal,0,7.980420234,H4
mp-22240,MnAs,MnAs,116.11,202.39,83.667,0.20949,111.74,180.9,73.525,0.23018,113.92,78.596,191.7,0.21955,orthorhombic,0,7.514022241,H4
mp-29896,Y2B3C2,Y2B3C2,152.89,245.76,99.733,0.23209,145.89,84.162,29.975,0.40385,149.39,64.854,169.97,0.31038,orthorhombic,0,4.565790457,H4
mp-3348,LiBIr,LiBIr,162.33,173.44,65.6,0.32193,161.91,149.32,55.457,0.34629,162.12,60.529,161.49,0.33398,orthorhombic,0,9.287770569,H4
mp-850978,VFeO4,VFeO4,148,196.86,77,0.27831,113.9,166.17,66.103,0.25686,130.95,71.552,181.58,0.26889,orthorhombic,1.3036,3.959429281,H2
mp-21149,GdO2,GdO2,132.67,187.19,74,0.26483,131.01,174.58,68.305,0.27791,131.84,71.153,180.91,0.27129,tetragonal,0,8.542467625,H4
mp-11809,TiAl2,TiAl2,108.33,196.82,82.2,0.1972,108.31,192.28,79.843,0.20412,108.32,81.022,194.56,0.20065,orthorhombic,0,3.534126301,H4
mp-17017,Al12Co4Cu,Al12Co4Cu,123.44,188.9,75.867,0.24496,122.38,183.65,73.467,0.24989,122.91,74.667,186.28,0.24741,monoclinic,0,4.313762648,H4
mvc-11697,YCuO3,YCuO3,148.67,177.46,68.2,0.30105,148.67,162.77,61.772,0.31752,148.67,64.986,170.16,0.30923,cubic,0,6.152301942,H1a
mp-7604,Mg3NF3,Mg3NF3,108.33,194.9,81.2,0.20015,108.33,194.06,80.761,0.20144,108.33,80.981,194.48,0.2008,cubic,4.0633,3.088405279,H2
mp-1016819,HfZnO3,HfZnO3,158.67,183.08,70,0.30769,158.67,143.41,53.14,0.34936,158.67,61.57,163.55,0.3282,cubic,0,7.154294749,H1a
mp-573119,BiRhO3,BiRhO3,175.78,161.77,60.067,0.34661,171.61,144.95,53.319,0.35923,173.69,56.693,153.39,0.35282,orthorhombic,0.3794,9.498988703,H2
mp-3689,NdCo4B,NdCo4B,150.11,170.56,65.067,0.31063,149.5,168,63.991,0.3127,149.81,64.529,169.28,0.31167,hexagonal,0,8.430035779,H4
mp-1025365,Sc(VGa2)2,Sc(VGa2)2,118.78,196.13,80.067,0.22479,118.35,181.02,72.694,0.24508,118.56,76.381,188.63,0.23483,tetragonal,0,6.416055158,H4
mp-30336,Al4W,Al4W,117,193.06,78.8,0.22499,116.12,186.44,75.643,0.23241,116.56,77.221,189.76,0.22867,monoclinic,0,5.975827489,H4
mvc-13997,AlVO3,AlVO3,190.22,171.99,63.733,0.34931,186.47,113.18,40.457,0.39884,188.35,52.095,143.09,0.37338,hexagonal,0,3.965967441,H4
mp-974943,HfZrTc2,HfZrTc2,141.67,178.97,69.4,0.28944,141.67,169.9,65.339,0.30012,141.67,67.37,174.46,0.29476,cubic,0,10.93601633,H1a
mp-2965,Ce(MnSi)2,Ce(MnSi)2,124.11,201.74,82.067,0.22909,123.01,169.05,66.506,0.27094,123.56,74.286,185.65,0.24958,tetragonal,0,6.28781006,H4
mp-1025022,HoInPt4,HoInPt4,169.33,164.34,61.4,0.33825,169.33,147.88,54.59,0.35445,169.33,57.995,156.16,0.3463,cubic,0,15.75180258,H1a
mp-669546,AlPd,AlPd,150.22,174.38,66.733,0.30653,150.22,163.38,61.945,0.31874,150.22,64.339,168.9,0.31261,trigonal,0,7.53975162,H2
mp-3758,Eu(NiP)2,Eu(NiP)2,121.78,191.33,77.267,0.23814,121.64,181.93,72.731,0.25072,121.71,74.999,186.66,0.24439,tetragonal,0,7.43251561,H4
mp-30808,TbNi5,TbNi5,133.44,181.92,71.467,0.27279,132.9,177.44,69.45,0.27748,133.17,70.458,179.69,0.27512,hexagonal,0,9.268992297,H4
mp-12077,Y(FeB)2,Y(FeB)2,120.67,190.89,77.2,0.23634,120.66,183.55,73.628,0.24647,120.66,75.414,187.24,0.24138,tetragonal,0,5.967438032,H4
mp-1296,ErB6,ErB6,175,237.01,93,0.27427,175,55.794,19.281,0.44686,175,56.14,152.15,0.35509,cubic,0,5.648325195,H1a
mp-4881,Er(SiNi)2,Er(SiNi)2,129.67,184.82,73.2,0.26244,129.31,179.01,70.519,0.26926,129.49,71.859,181.92,0.26584,tetragonal,0,7.614693756,H4
mp-21003,Y2ReC2,Y2ReC2,123.89,189.57,76.133,0.24498,123.57,181.02,72.07,0.25585,123.73,74.101,185.31,0.25038,orthorhombic,0,7.68749521,H4
mp-973443,Hf2ReTc,Hf2ReTc,130.67,183.34,72.4,0.26615,130.67,178.85,70.309,0.27188,130.67,71.355,181.1,0.26901,cubic,0,15.21934665,H1a
mp-7189,AlPd,AlPd,147.67,170.51,65.2,0.30756,147.67,169.98,64.97,0.30815,147.67,65.085,170.24,0.30785,cubic,0,7.491359435,H1a
mp-19004,Sr8Fe8O23,Sr8Fe8O23,124,186.83,74.8,0.24888,123.08,183.81,73.458,0.2511,123.54,74.129,185.32,0.24999,tetragonal,0,5.22213934,H4
mp-975347,NdGeO3,NdGeO3,144.33,172.26,66.2,0.30108,144.33,172.26,66.199,0.30108,144.33,66.2,172.26,0.30108,cubic,0,7.037782721,H1a
mp-984628,CaBO3,CaBO3,163.67,165.62,62.2,0.33134,163.67,153.3,57.034,0.34389,163.67,59.617,159.49,0.33759,cubic,0,3.897366578,H1a
mp-390,TiO2,TiO2,187.67,154.78,56.8,0.36254,170.97,142.81,52.474,0.36078,179.32,54.637,148.8,0.3617,tetragonal,2.0625,3.763388471,H4
mp-865869,Be2CuPt,Be2CuPt,171,178.25,67.2,0.32627,171,129.61,47.175,0.37368,171,57.187,154.36,0.34956,cubic,0,10.67065543,H1a
mp-998970,TiFe2Sb,TiFe2Sb,216.67,159.75,58,0.37712,216.67,83.284,29,0.43594,216.67,43.5,122.31,0.40591,cubic,0,8.456761437,H1a
mp-8786,Zr2NiAs2,Zr2NiAs2,141.56,181.46,70.533,0.28635,135.82,169.83,65.742,0.29161,138.69,68.138,175.65,0.28892,hexagonal,0,7.300473891,H4
mp-20425,NpSi3,NpSi3,106,200.47,84.6,0.1848,106,189.1,78.617,0.20267,106,81.608,194.83,0.19367,cubic,0,8.313734807,H1a
mp-636334,SnRh2,SnRh2,177.33,153.47,56.6,0.35576,176.32,146.97,53.992,0.36108,176.83,55.296,150.23,0.3584,orthorhombic,0,10.99591215,H4
mp-774411,Li2VO2,Li2VO2,112.33,194.35,80.2,0.21165,111.62,188.43,77.311,0.21864,111.98,78.756,191.4,0.21512,trigonal,1.9101,3.426222319,H2
mp-2644,CoSb,CoSb,136.78,181.73,71.067,0.27856,136.77,171.3,66.332,0.29125,136.77,68.699,176.54,0.28488,hexagonal,0,8.868028713,H4
mp-7601,NbGaO4,NbGaO4,163.78,162.95,61.067,0.33418,163.03,155.22,57.861,0.34132,163.4,59.464,159.09,0.33773,monoclinic,3.4496,4.819142899,H2
mp-2720,NdPt2,NdPt2,148.33,171.52,65.6,0.30729,148.33,166.54,63.424,0.31288,148.33,64.512,169.03,0.31008,cubic,0,14.88750395,H1a
mvc-14600,AlSbO3,AlSbO3,147,173.59,66.6,0.30319,147,166.14,63.333,0.31163,147,64.967,169.87,0.3074,cubic,0,4.911471828,H1a
mp-20928,Sb2Ru,Sb2Ru,117.22,198.96,81.733,0.21712,113.95,179.13,72.348,0.23799,115.59,77.04,189.11,0.22732,orthorhombic,0.0892,8.737894543,H2
mp-3618,Sc2FeSi2,Sc2FeSi2,120,188.26,76,0.23853,119.54,184.97,74.459,0.24211,119.77,75.23,186.62,0.24031,monoclinic,0,4.124423954,H4
mp-20536,CoSn,CoSn,126.56,184.39,73.333,0.25717,126.56,180.6,71.544,0.26216,126.56,72.439,182.5,0.25966,hexagonal,0,8.557223352,H4
mp-569931,Pr(NiP)2,Pr(NiP)2,112.89,198.7,82.333,0.20665,108.99,184.32,75.658,0.21814,110.94,78.996,191.53,0.21227,tetragonal,0,7.042608033,H4
mp-12075,Tb(FeB)2,Tb(FeB)2,123.44,187.25,75.067,0.24719,123.25,181.41,72.291,0.2547,123.35,73.679,184.33,0.25093,tetragonal,0,7.821976856,H4
mp-395,ZrAl3,ZrAl3,103,196.65,83.2,0.1818,102.67,194.86,82.311,0.18369,102.84,82.755,195.76,0.18274,tetragonal,0,4.086082426,H4
mp-996996,CrAuO2,CrAuO2,162,179.42,68.2,0.31541,151.69,146.41,54.665,0.33913,156.84,61.432,163.01,0.32678,trigonal,1.2953,9.220117995,H2
mp-18988,Li2MnO3,Li2MnO3,113.11,200.19,83.067,0.20502,110.31,181.6,74.082,0.22564,111.71,78.574,190.95,0.21511,monoclinic,1.9342,3.726304729,H4
mp-762454,LiCrO2,LiCrO2,99.444,230.14,103.27,0.11429,63.458,178.24,86.366,0.031877,81.451,94.816,204.93,0.08067,tetragonal,1.7748,4.165067266,H1a
mp-7288,Sc2SO2,Sc2SO2,139.56,175.35,67.933,0.29059,139.55,172.91,66.839,0.29349,139.55,67.386,174.13,0.29203,hexagonal,2.1135,3.715627619,H1b
mp-812,Ho2O3,Ho2O3,145,171.92,66,0.3024,145,169.25,64.824,0.30546,145,65.412,170.58,0.30393,cubic,3.9612,8.403898598,H2
mp-1025262,Sm2Fe2Si2C,Sm2Fe2Si2C,129.44,194.17,77.667,0.25,125.72,168.6,66.042,0.27648,127.58,71.854,181.49,0.26291,monoclinic,0,7.01271133,H4
mp-989524,LaWN3,LaWN3,173.56,191.46,72.733,0.31614,166.65,114.37,41.269,0.38562,170.1,57.001,153.82,0.34929,trigonal,1.2941,9.211968986,H2
mp-862297,LiAlRh2,LiAlRh2,148.67,169.28,64.6,0.31022,148.67,166.99,63.599,0.3128,148.67,64.1,168.13,0.31151,cubic,0,7.593318131,H1a
mp-753490,TiCuGe,TiCuGe,132.89,184.96,72.933,0.26802,132.16,171.82,66.945,0.28332,132.52,69.939,178.43,0.2756,orthorhombic,0,6.897654854,H4
mp-3376,Sr2SnO4,Sr2SnO4,137.11,177.85,69.267,0.28381,134.23,174.97,68.2,0.28276,135.67,68.733,176.41,0.28329,tetragonal,2.6767,5.519724099,H4
mp-19420,Sr2MgWO6,Sr2MgWO6,127.33,182.59,72.4,0.261,126.58,180.98,71.723,0.26169,126.96,72.061,181.79,0.26135,tetragonal,3.4359,6.16719751,H4
mp-2070,CoS2,CoS2,124,183.49,73.2,0.25337,124,183.43,73.171,0.25345,124,73.185,183.46,0.25341,cubic,0,4.895913867,H1a
mp-24148,LiLa2HO3,LiLa2HO3,124.11,187.41,75.067,0.24832,122.24,180.45,71.951,0.25397,123.18,73.509,183.94,0.25112,orthorhombic,1.9591,6.30092452,H2
mp-646507,Hf2Ni2Sn,Hf2Ni2Sn,141.89,175.3,67.733,0.29408,141.69,169.41,65.12,0.30073,141.79,66.427,172.36,0.2974,tetragonal,0,11.65044636,H4
mp-978926,SmGeO3,SmGeO3,148.67,167.91,64,0.31176,148.67,167.69,63.908,0.312,148.67,63.954,167.8,0.31188,cubic,0,7.320124012,H1a
mp-19419,LiFeO2,LiFeO2,125.11,201.62,81.867,0.23141,117.84,167.59,66.348,0.26297,121.48,74.107,184.75,0.24652,trigonal,1.7063,4.582700521,H2