Material_ID,Formula,pretty_formula,KV ,EV ,GV ,PV ,KR ,ER ,GR ,PR ,bulk,shear,young,poisson,csyst,gap,density,y_cla
mp-15694,PaAs,PaAs,108,169.43,68.4,0.23853,108,102.76,38.304,0.34142,108,53.352,137.43,0.28792,cubic,0,10.43503168,H1a
mp-865985,CdPd3,CdPd3,137.22,130.24,48.533,0.34181,136.72,105.89,38.621,0.37091,136.97,43.577,118.2,0.35618,tetragonal,0,10.8320831,H4
mp-14827,Li7NbN4,Li7NbN4,81.667,158.94,67.6,0.17562,81.667,146.23,60.852,0.20156,81.667,64.226,152.66,0.18845,cubic,3.3329,2.737565228,H2
mp-1029257,Zn2ReN3,Zn2ReN3,129.78,97.012,35.267,0.37541,124.48,150.69,58.037,0.29824,127.13,46.652,124.7,0.33652,orthorhombic,0,8.004164498,H4
mp-10638,ZrSb,ZrSb,95.667,153.36,62.2,0.23282,94.148,136.77,54.367,0.25788,94.907,58.284,145.14,0.24512,orthorhombic,0,7.417500894,H4
mp-20849,Pd3Pb,Pd3Pb,131.33,125.97,47,0.34014,131.33,117.35,43.429,0.35108,131.33,45.214,121.68,0.34558,cubic,0,12.49762951,H1a
mp-777422,DyHO2,DyHO2,101.78,148.06,58.867,0.25755,98.166,135.98,53.571,0.26914,99.972,56.219,142.03,0.26321,orthorhombic,4.7409,6.897815057,H2
mp-1016932,MnZnO3,MnZnO3,75.667,165.71,73,0.135,75.667,144.63,61.209,0.18143,75.667,67.105,155.38,0.15775,cubic,0,5.348894748,H1a
mp-1016836,ZnOsO3,ZnOsO3,193.67,78.498,27.4,0.43245,193.67,76.418,26.641,0.43424,193.67,27.02,77.459,0.43334,cubic,0,8.52026912,H1a
mp-865798,GaCu3,GaCu3,126.89,126.77,47.533,0.33349,126.88,122.38,45.69,0.33924,126.88,46.612,124.58,0.33636,hexagonal,0,8.653751916,H4
mvc-4299,Al(SnO2)2,Al(SnO2)2,131,132.12,49.6,0.3319,125.35,115.21,42.773,0.34681,128.18,46.186,123.7,0.33915,trigonal,0,5.67791256,H2
mp-1016871,ZrHgO3,ZrHgO3,143,132.41,49.2,0.34567,143,93.959,33.786,0.39049,143,41.493,113.5,0.36771,cubic,0,7.698366168,H1a
mp-146,V,V,179.33,108.05,38.6,0.39958,179.33,66.851,23.246,0.43787,179.33,30.923,87.727,0.41847,cubic,0,6.312904043,H1a
mp-18928,Mn2SiO4,Mn2SiO4,117.89,133.56,50.933,0.31117,114.7,129.46,49.34,0.31189,116.3,50.137,131.51,0.31153,orthorhombic,1.9885,3.973788423,H2
mp-3602,YAl4Ni,YAl4Ni,92.778,149.43,60.667,0.23156,92.478,142.9,57.507,0.24246,92.628,59.087,146.18,0.23698,orthorhombic,0,4.084857502,H4
mp-1009218,MoC,MoC,246,54.428,18.6,0.46312,246,22.794,7.6772,0.48456,246,13.139,38.726,0.47376,cubic,0,6.911812877,H1a
mp-1020019,Li2PNO2,Li2PNO2,89.667,152.74,62.8,0.21609,88.627,143.44,58.298,0.23025,89.147,60.549,148.11,0.22309,orthorhombic,5.5966,2.541644184,H2
mp-504974,Fe2Mo3O8,Fe2Mo3O8,148.33,116.63,42.6,0.36895,133.31,112.93,41.553,0.35881,140.82,42.077,114.8,0.36413,hexagonal,0.2673,5.385747587,H1a
mp-1429,SmCo5,SmCo5,145.67,116.45,42.6,0.36676,143.2,108.12,39.34,0.37416,144.43,40.97,112.29,0.37042,hexagonal,0,8.724372703,H4
mp-16261,Ca(GeRh)2,Ca(GeRh)2,96.667,145.42,58.2,0.24928,96.498,141.88,56.528,0.25495,96.582,57.364,143.65,0.25211,tetragonal,0,7.055505926,H4
mp-6979,ThGeS,ThGeS,96.333,144.08,57.6,0.25072,96.135,143.59,57.386,0.25107,96.234,57.493,143.83,0.25089,tetragonal,0,8.272388065,H4
mp-12777,AlCu3,AlCu3,130.33,165.88,64.4,0.28788,130.33,73.859,26.274,0.40555,130.33,45.337,121.88,0.34414,cubic,0,7.26863854,H1a
mp-8145,RbScO2,RbScO2,95.556,151.57,61.333,0.23563,95.062,136.83,54.291,0.26011,95.309,57.812,144.27,0.24772,trigonal,3.3909,4.471220806,H2
mp-6668,LiTiPO5,LiTiPO5,100.89,150.92,60.333,0.25069,90.899,136.91,54.809,0.24897,95.894,57.571,143.91,0.24987,orthorhombic,3.0594,3.106503295,H2
mp-562,Sb2Pt,Sb2Pt,104,144.59,57,0.26829,104,133.2,51.767,0.28654,104,54.384,138.93,0.27735,cubic,0,10.37256938,H1a
mp-10844,Te2Ir,Te2Ir,121,128.58,48.6,0.32289,121,127.13,47.976,0.32489,121,48.288,127.86,0.32389,cubic,0,10.61122403,H1a
mp-10086,YSF,YSF,105.56,139.13,54.333,0.28032,105.52,136.57,53.171,0.28428,105.54,53.752,137.85,0.2823,tetragonal,1.3137,4.685387003,H1a
mp-1025222,ZnPd5Se,ZnPd5Se,136.11,127.09,47.267,0.34438,135.32,108.58,39.738,0.36626,135.72,43.502,117.91,0.3552,tetragonal,0,9.905246734,H4
mp-14115,LiRhO2,LiRhO2,125.89,138.82,52.733,0.31622,116.28,116.57,43.726,0.33293,121.09,48.23,127.73,0.32419,trigonal,1.4348,5.991561532,H2
mvc-15239,AlCuO3,AlCuO3,240.67,50.399,17.2,0.4651,240.67,33.599,11.376,0.47673,240.67,14.288,42.032,0.47089,cubic,0,4.544378009,H1a
mp-772099,Cd(CuO2)2,Cd(CuO2)2,127.11,133.24,50.267,0.3253,120.48,118.39,44.302,0.33622,123.79,47.284,125.83,0.33059,tetragonal,0.3198,6.401695589,H1a
mp-557713,Ba2LaTaO6,Ba2LaTaO6,121.67,131,49.6,0.32055,121.15,123.62,46.475,0.32994,121.41,48.037,127.32,0.32522,monoclinic,3.6351,6.914650586,H2
mp-1025364,Dy(TiGa2)2,Dy(TiGa2)2,92.111,151.65,61.867,0.22561,91.28,140.11,56.306,0.24418,91.695,59.086,145.92,0.23478,tetragonal,0,7.116746649,H4
mp-3944,ZrAlNi2,ZrAlNi2,148.67,108.61,39.4,0.37824,148.67,108.59,39.394,0.37826,148.67,39.397,108.6,0.37825,cubic,0,6.799140678,H1a
mp-974474,ReBr,ReBr,126.56,143.97,54.933,0.3104,115.83,110.56,41.228,0.34091,121.19,48.08,127.39,0.32481,hexagonal,0,12.34611367,H4
mp-768241,Dy2Ge2O7,Dy2Ge2O7,123.44,139.25,53.067,0.312,116.06,117.29,44.044,0.33156,119.75,48.555,128.32,0.3214,monoclinic,3.8606,6.078908119,H2
mp-867213,Er2OsPd,Er2OsPd,118,129.59,49.2,0.31696,118,129.36,49.099,0.31729,118,49.15,129.47,0.31713,cubic,0,13.08641494,H1a
mp-1014005,Mn2SiRh,Mn2SiRh,114.67,6.5581,2.2,0.49047,114.67,229.53,98.393,0.16638,114.67,50.296,131.64,0.30866,cubic,0,7.426552152,H1a
mp-1029520,Mg2CrN3,Mg2CrN3,133.78,142.94,54.067,0.32191,111.15,109.91,41.157,0.3352,122.47,47.612,126.45,0.32791,orthorhombic,0,3.260071688,H4
mp-5400,Th(CrSi)2,Th(CrSi)2,147,128.89,47.6,0.35387,146.18,90.304,32.32,0.39704,146.59,39.96,109.89,0.37505,tetragonal,0,7.680172137,H4
mp-977421,TbGaRh2,TbGaRh2,149,109.13,39.6,0.37793,149,107.21,38.842,0.38008,149,39.221,108.17,0.379,cubic,0,10.59127536,H1a
mp-423,GePd2,GePd2,153.44,126.12,46.267,0.36301,149.91,85.888,30.576,0.40451,151.68,38.421,106.29,0.38321,hexagonal,0,10.18840164,H4
mp-19391,NaVO2,NaVO2,115.44,138.95,53.467,0.2994,112.87,124.61,47.345,0.316,114.16,50.406,131.82,0.30755,trigonal,0,3.981260301,H2
mp-10261,TiNi2Sb,TiNi2Sb,171,122.59,44.4,0.38052,171,61.225,21.254,0.44033,171,32.827,92.558,0.40979,cubic,0,8.320773387,H1a
mp-862300,Sc2GaOs,Sc2GaOs,125,137.46,52.2,0.31671,125,111.42,41.224,0.35144,125,46.712,124.61,0.33385,cubic,0,8.22431804,H1a
mp-865342,Zn3Rh,Zn3Rh,128,144.79,55.2,0.31148,127.59,99.602,36.354,0.36989,127.79,45.777,122.68,0.34,tetragonal,0,8.803773943,H4
mp-961687,ZrSnPd,ZrSnPd,98,144.49,57.6,0.25427,98,139.2,55.095,0.26327,98,56.347,141.85,0.25875,cubic,0.1828,7.995516064,H5
mp-865929,Cd2PtRh,Cd2PtRh,136.67,145.48,55,0.32258,136.67,86.092,30.857,0.39501,136.67,42.929,116.58,0.35783,cubic,0,12.53487685,H1a
mp-1048,TiNi,TiNi,154.67,153.72,57.6,0.33436,149.6,54.265,18.848,0.43954,152.13,38.224,105.81,0.38408,monoclinic,0,6.412985726,H4
mp-13007,PrCrGe3,PrCrGe3,87.889,149.28,61.333,0.21692,85.214,147.62,60.936,0.21128,86.552,61.135,148.45,0.21414,hexagonal,0,7.155418656,H4
mp-862378,Sc2TcAu,Sc2TcAu,119,129.72,49.2,0.31832,119,127.19,48.11,0.32186,119,48.655,128.46,0.32009,cubic,0,8.822525117,H1a
mp-13061,Y2O3,Y2O3,143.89,162.49,61.933,0.31179,135.83,62.289,21.878,0.42357,139.86,41.905,114.3,0.36379,trigonal,4.194,5.379087955,H2
mp-2560,Ti3Hg,Ti3Hg,117.67,133.23,50.8,0.31129,117.67,125.33,47.385,0.32248,117.67,49.093,129.3,0.31686,cubic,0,8.054964566,H1a
mp-2381,ErRh,ErRh,126,124.93,46.8,0.33475,126,122.51,45.785,0.33794,126,46.292,123.72,0.33634,cubic,0,11.41558335,H1a
mp-1361,IrSe2,IrSe2,106,139.36,54.4,0.28088,105.1,134.47,52.25,0.28677,105.55,53.325,136.92,0.28381,orthorhombic,0.0669,9.54295,H2
mp-19807,Co3(SnS)2,Co3(SnS)2,97,144.25,57.6,0.25215,96.806,140.11,55.655,0.25877,96.903,56.627,142.19,0.25545,trigonal,0,7.188151829,H2
mp-756361,ZrSeO,ZrSeO,121.67,126.8,47.8,0.32631,121.67,126.01,47.468,0.32738,121.67,47.634,126.41,0.32684,cubic,2.1088,6.060150344,H2
mp-1018142,NbN,NbN,227,56.021,19.2,0.45887,227,46.295,15.789,0.46601,227,17.495,51.17,0.46243,cubic,0,6.451684765,H1a
mp-864744,HoMgRh2,HoMgRh2,117,129.45,49.2,0.31559,117,129.41,49.18,0.31566,117,49.19,129.43,0.31562,cubic,0,9.279802437,H1a
mp-862843,PaZnRu2,PaZnRu2,171.33,95.143,33.8,0.40745,171.33,88.311,31.225,0.41409,171.33,32.513,91.735,0.41076,cubic,0,12.09798908,H1a
mp-862486,Sc2AlOs,Sc2AlOs,125.33,137.97,52.4,0.31653,125.33,109.34,40.36,0.3546,125.33,46.38,123.86,0.33529,cubic,0,7.168696018,H1a
mp-9812,ZnCO3,ZnCO3,121.67,134.24,51,0.31611,112.69,124.29,47.217,0.31618,117.18,49.108,129.27,0.31614,trigonal,3.5931,4.24419381,H2
mp-1471,Zr3Al,Zr3Al,101,146.47,58.2,0.25831,101,132.56,51.732,0.28125,101,54.966,139.58,0.26967,cubic,0,5.913584759,H1a
mp-7168,TbPPt,TbPPt,126.11,132.18,49.867,0.32532,109.79,125.23,47.802,0.3099,117.95,48.834,128.74,0.31809,hexagonal,0,11.01317208,H4
mp-21301,ScInNi2,ScInNi2,118,139.2,53.4,0.30339,118,117.96,44.235,0.33338,118,48.818,128.7,0.31821,cubic,0,7.436590593,H1a
mp-31031,La4PdO7,La4PdO7,121.11,145.26,55.867,0.3001,105.4,118.29,45.047,0.31295,113.26,50.457,131.8,0.30605,monoclinic,0.4282,6.803701928,H4
mp-1025366,SiSbPt5,SiSbPt5,194.44,122.4,43.867,0.39509,192.03,26.272,8.8926,0.4772,193.24,26.38,75.694,0.43471,tetragonal,0,16.08614795,H4
mp-8126,YCuSi,YCuSi,95.111,153.74,62.467,0.23059,85.321,137.88,56.019,0.23066,90.216,59.243,145.81,0.23062,hexagonal,0,5.355216138,H4
mp-10608,Y3SnC,Y3SnC,82.333,150.97,63.2,0.19439,82.333,149.31,62.33,0.19775,82.333,62.765,150.14,0.19607,cubic,0,5.609966912,H1a
mp-864969,Mg2PdRh,Mg2PdRh,107,139.99,54.6,0.28195,107,131.16,50.613,0.2957,107,52.607,135.6,0.28879,cubic,0,6.884959872,H1a
mp-4520,Y(CuGe)2,Y(CuGe)2,100.78,141.03,55.667,0.26676,100.15,138.27,54.44,0.2699,100.46,55.053,139.65,0.26832,tetragonal,0,7.039861784,H4
mp-2134,ErAl3,ErAl3,79.667,151.45,64,0.18317,79.667,151.45,64,0.18317,79.667,64,151.45,0.18317,cubic,0,5.432523274,H1a
mp-775808,MgO,MgO,116,130.24,49.6,0.31288,115.26,129.64,49.383,0.31255,115.63,49.492,129.94,0.31271,trigonal,3.4114,2.728349205,H2
mp-2333,NdPd3,NdPd3,115,133.3,51,0.30682,115,127.31,48.387,0.3155,115,49.694,130.31,0.31114,cubic,0,10.35951803,H1a
mp-1018043,Ti2InCo,Ti2InCo,139.33,128.2,47.6,0.34665,139.33,99.247,35.925,0.38128,139.33,41.763,113.91,0.36375,cubic,0,6.796545121,H1a
mp-504543,SnPbO3,SnPbO3,116.33,129.82,49.4,0.31401,116.33,128.88,48.992,0.31535,116.33,49.196,129.35,0.31468,cubic,0,7.981674139,H1a
mp-10601,Y3GaC,Y3GaC,79.333,152.06,64.4,0.18056,79.333,150.84,63.748,0.18311,79.333,64.074,151.45,0.18183,cubic,0.0887,5.007370875,H5
mp-973933,NiN,NiN,230,69.019,23.8,0.44999,226.07,30.121,10.191,0.47779,228.03,16.996,49.751,0.46364,hexagonal,0,5.975263663,H4
mp-3676,MgCu4Sn,MgCu4Sn,100.33,140.37,55.4,0.26684,100.33,138.45,54.506,0.27002,100.33,54.953,139.41,0.26843,cubic,0,7.489457123,H1a
mp-581733,Zr4CuP,Zr4CuP,120.44,128.2,48.467,0.3226,119.92,125.04,47.142,0.32621,120.18,47.804,126.62,0.3244,tetragonal,0,6.657358617,H4
mp-20155,CoSn2,CoSn2,101.11,142.81,56.467,0.26459,101.04,134.82,52.764,0.27761,101.08,54.615,138.84,0.27106,tetragonal,0,8.839862794,H4
mp-10846,NiAsSe,NiAsSe,101.33,140.58,55.4,0.26878,101.33,136.75,53.624,0.27508,101.33,54.512,138.67,0.27192,cubic,0,6.978499366,H1a
mp-4195,Tm(NiGe)2,Tm(NiGe)2,121.11,130.15,49.267,0.32089,118.72,123.3,46.463,0.3269,119.91,47.865,126.73,0.32386,tetragonal,0,9.004142089,H4
mp-10219,YOF,YOF,124.33,145.62,55.8,0.3048,123.81,101.27,37.131,0.36368,124.07,46.466,123.93,0.33353,tetragonal,4.9587,4.96187031,H4
mp-865516,YPaRu2,YPaRu2,131,125.46,46.8,0.34038,131,112.56,41.48,0.35679,131,44.14,119.05,0.34854,cubic,0,10.76080247,H1a
mp-961656,VFeTe,VFeTe,100.33,141.65,56,0.26471,100.33,136.37,53.541,0.27348,100.33,54.77,139.02,0.26908,cubic,0,7.844460366,H1a
mp-865737,Li2InSn,Li2InSn,148.67,114.65,41.8,0.37146,148.67,98.767,35.546,0.38927,148.67,38.673,106.76,0.38031,cubic,0,5.127598226,H1a
mp-865759,YbHfRh2,YbHfRh2,137.33,114.84,42.2,0.36063,137.33,114.42,42.032,0.36114,137.33,42.116,114.63,0.36089,cubic,0,13.01941368,H1a
mp-10738,SmPPt,SmPPt,118.89,130.02,49.333,0.31773,113.86,127.41,48.5,0.31349,116.37,48.917,128.72,0.31566,hexagonal,0,10.38564882,H4
mp-977438,MgInRh2,MgInRh2,80.667,154.09,65.2,0.18164,80.667,146.2,61.02,0.19794,80.667,63.11,150.17,0.18973,cubic,0,8.87965459,H1a
mp-997085,SrAgO2,SrAgO2,139.22,145.64,54.933,0.32565,112.7,98.68,36.439,0.35406,125.96,45.686,122.27,0.33821,orthorhombic,0,5.942676645,H4
mp-1025504,TmGa2Ni,TmGa2Ni,99.667,146.99,58.6,0.25419,98.052,132.43,51.937,0.2749,98.859,55.269,139.76,0.26438,orthorhombic,0,8.970673614,H4
mp-8308,Ca3Ni7B2,Ca3Ni7B2,103.56,139.6,54.733,0.27531,103.45,134.01,52.182,0.28409,103.5,53.458,136.82,0.27969,trigonal,0,5.669552698,H2
mp-16340,GdPPt,GdPPt,126.44,129.4,48.667,0.32944,112.02,123.73,47.014,0.31591,119.23,47.84,126.59,0.32305,hexagonal,0,10.78011084,H4
mp-30815,LaAl3Pd2,LaAl3Pd2,117.89,128.49,48.733,0.31834,116.55,127.32,48.301,0.31794,117.22,48.517,127.91,0.31814,hexagonal,0,6.345840156,H4
mp-11023,ScAuO2,ScAuO2,141.22,136.88,51.133,0.33846,127.46,95.467,34.711,0.37517,134.34,42.922,116.37,0.35563,hexagonal,1.8236,7.988987028,H1a
mp-6493,CaMgSiO4,CaMgSiO4,101.78,140.39,55.267,0.27011,99.504,136.57,53.713,0.27125,100.64,54.49,138.48,0.27067,orthorhombic,4.6306,2.957136985,H2
mp-2283,ZrCo,ZrCo,130.67,119.16,44.2,0.34801,130.67,118.35,43.865,0.34904,130.67,44.032,118.76,0.34852,cubic,0,7.649629559,H1a
mp-4628,ZrSiSe,ZrSiSe,101.44,179.1,74.267,0.20576,68.987,115.59,47.344,0.22074,85.216,60.805,147.37,0.21178,tetragonal,0.0052,5.801912501,H1a
mp-21251,UGa5Ni,UGa5Ni,91.111,144.09,58.267,0.23643,91.095,144,58.225,0.23654,91.103,58.246,144.04,0.23649,tetragonal,0,8.710603107,H4
mp-1008635,WC,WC,249,56.157,19.2,0.46241,249,9.6703,3.2374,0.49353,249,11.219,33.158,0.47781,cubic,0,12.45494761,H1a
mp-569544,ZrTe,ZrTe,95.889,160.12,65.533,0.22169,91.08,124.5,48.934,0.27217,93.485,57.234,142.6,0.24577,hexagonal,0,7.51771052,H4
mp-2716,TiNi,TiNi,152,105.23,38,0.38462,151.58,102.77,37.047,0.387,151.79,37.524,104,0.3858,trigonal,0,6.527047621,H2
mp-862368,Sc2NiPt,Sc2NiPt,125,123.4,46.2,0.33547,125,121.52,45.411,0.33798,125,45.805,122.46,0.33672,cubic,0,8.34166559,H1a
mp-806,PuO,PuO,116.33,136.68,52.4,0.30419,116.33,119.5,44.967,0.32879,116.33,48.684,128.17,0.31637,cubic,0,14.02700764,H1a
mp-12734,NdAl3Pd2,NdAl3Pd2,106.44,136.07,52.867,0.28694,104.6,134.16,52.152,0.28624,105.52,52.509,135.12,0.28659,hexagonal,0,6.580814831,H4
mp-3504,NbNi2Sn,NbNi2Sn,178.67,130.14,47.2,0.3786,178.67,36.323,12.387,0.46612,178.67,29.794,84.674,0.42101,cubic,0,9.165007296,H1a
mp-788,CoTe,CoTe,110.44,132.74,51.067,0.29969,110.43,131.04,50.312,0.30223,110.44,50.689,131.89,0.30096,hexagonal,0,8.825965233,H4
mp-11826,CaPd5,CaPd5,114.11,130.58,49.867,0.30928,113.14,129.06,49.265,0.30987,113.62,49.566,129.82,0.30958,hexagonal,0,8.542681858,H4
mp-4448,Y3AlC,Y3AlC,79.667,150.32,63.4,0.18552,79.667,149.82,63.134,0.18656,79.667,63.267,150.07,0.18604,cubic,0.0762,4.327411798,H5
mp-810,NiSb,NiSb,113.67,131.27,50.2,0.30752,113.66,128.26,48.882,0.31193,113.66,49.541,129.77,0.30972,hexagonal,0,8.564299413,H4
mp-1018103,ZrAu2,ZrAu2,157.33,153.05,57.2,0.33787,157,42.117,14.47,0.45529,157.17,35.835,99.912,0.39405,tetragonal,0,13.9510469,H4
mp-865149,PaAlRu2,PaAlRu2,173,91.489,32.4,0.41186,173,85.496,30.155,0.41763,173,31.277,88.499,0.41474,cubic,0,10.93448339,H1a
mp-5777,BaTiO3,BaTiO3,106.89,177.06,72.333,0.22392,87.794,101.05,38.624,0.30816,97.342,55.479,139.86,0.26053,orthorhombic,2.3733,5.713375577,H2
mp-862954,PmPd3,PmPd3,108.67,135.88,52.6,0.2916,108.67,129.68,49.833,0.30111,108.67,51.216,132.79,0.29634,cubic,0,10.50158391,H1a
mp-149,Si,Si,83.333,151.34,63.2,0.19732,83.333,144.29,59.555,0.21142,83.333,61.377,147.84,0.20433,cubic,0.8527,2.281194284,H5
mp-2557,Zr2Al,Zr2Al,103.33,137.97,54,0.27747,103.03,134.32,52.358,0.28271,103.18,53.179,136.15,0.28008,hexagonal,0,5.59534975,H4
mp-8922,Cd(SbO3)2,Cd(SbO3)2,124.44,138.93,52.867,0.31394,102.71,120.04,45.986,0.30521,113.58,49.426,129.49,0.30998,trigonal,1.4314,6.201169074,H2
mp-1132,CdO,CdO,126.33,121.15,45.2,0.34017,126.33,120.89,45.09,0.34052,126.33,45.145,121.02,0.34034,cubic,0,7.7914355,H1a
mp-866094,HfZnCu2,HfZnCu2,133.33,134.75,50.6,0.33156,133.33,96.928,35.149,0.37884,133.33,42.874,116.17,0.35479,cubic,0,10.5089166,H1a
mp-1024957,TmInCu4,TmInCu4,99.333,140.15,55.4,0.26486,99.333,136.55,53.721,0.27089,99.333,54.56,138.35,0.26787,cubic,0,9.599632861,H1a
mp-865194,TmF3,TmF3,150.11,121.91,44.667,0.36465,149.93,86.171,30.683,0.40421,150.02,37.675,104.29,0.38414,tetragonal,5.5072,9.01700474,H4
mp-862431,Sc2AgOs,Sc2AgOs,124.33,123.8,46.4,0.33405,124.33,120.19,44.884,0.33889,124.33,45.642,122,0.33646,cubic,0,8.877308448,H1a
mp-609151,MgWO4,MgWO4,124.56,126.98,47.733,0.33009,119.15,120.31,45.17,0.33171,121.85,46.452,123.64,0.33088,monoclinic,3.2643,5.902041561,H2
mp-14398,CaSn(BO3)2,CaSn(BO3)2,101.56,156.89,63.133,0.24252,82.602,127.63,51.36,0.24248,92.079,57.247,142.26,0.24251,trigonal,3.7378,4.019648582,H2
mp-19877,ZrNi2Sn,ZrNi2Sn,144.33,128.66,47.6,0.35144,144.33,86.549,30.909,0.40006,144.33,39.255,107.97,0.37532,cubic,0,8.619194973,H1a
mp-765508,V3(O2F)2,V3(O2F)2,113,135.25,52,0.30051,106.02,127.64,49.118,0.29934,109.51,50.559,131.45,0.29995,triclinic,1.2464,3.894184634,H5
mp-8037,BaThO3,BaThO3,110.67,134.88,52,0.29688,110.67,126.44,48.276,0.30958,110.67,50.138,130.68,0.30319,cubic,3.6979,7.119627088,H2
mp-30585,HoCu5,HoCu5,127.11,123.3,46.067,0.33832,123.91,118.36,44.137,0.3408,125.51,45.102,120.83,0.33955,hexagonal,0,9.039159021,H4
mp-3329,Tb(NiGe)2,Tb(NiGe)2,120.56,126.97,47.933,0.32446,120.44,121.37,45.556,0.33206,120.5,46.744,124.18,0.32825,tetragonal,0,8.602990414,H4
mp-10194,LuSbPt,LuSbPt,107,133.36,51.6,0.29227,107,132.59,51.253,0.29348,107,51.426,132.98,0.29287,cubic,0.1807,11.70752398,H5
mp-3299,Sr(FeP)2,Sr(FeP)2,100.56,154.15,61.933,0.2445,83.612,130.07,52.418,0.24072,92.084,57.176,142.11,0.24278,tetragonal,0,5.229499395,H4
mvc-13691,YVO3,YVO3,183.22,125.13,45.133,0.38618,182,33.235,11.308,0.46956,182.61,28.22,80.514,0.42652,hexagonal,0,4.700647873,H4
mp-1234,LuAl2,LuAl2,82,148.18,61.8,0.19883,82,147.14,61.262,0.20093,82,61.531,147.66,0.19988,cubic,0,6.50248054,H1a
mp-858,TmAl2,TmAl2,82,148.18,61.8,0.19883,82,147.14,61.262,0.20093,82,61.531,147.66,0.19988,cubic,0,6.242120067,H1a
mp-776911,MgO,MgO,115.22,128.6,48.933,0.31399,114.94,126.58,48.075,0.31645,115.08,48.504,127.59,0.31522,hexagonal,3.4257,2.725799457,H1b
mp-1498,Al21Pd8,Al21Pd8,109.22,131.79,50.733,0.29889,108.95,131.15,50.465,0.29938,109.09,50.599,131.47,0.29914,tetragonal,0,5.109098254,H4
mp-865320,Lu2PdRu,Lu2PdRu,114.33,128.17,48.8,0.31317,114.33,127.94,48.702,0.3135,114.33,48.751,128.05,0.31333,cubic,0,11.99583685,H1a
mp-1008610,AuN,AuN,172.67,89.349,31.6,0.41376,172.67,85.696,30.233,0.41728,172.67,30.916,87.525,0.41552,cubic,0,13.76066577,H1a
mp-21260,FeSn,FeSn,100.33,139.51,55,0.26826,99.625,134.81,52.889,0.27447,99.979,53.945,137.16,0.27134,hexagonal,0,7.992862669,H4
mp-23089,SrTa2Bi2O9,SrTa2Bi2O9,87.556,150.35,61.933,0.2138,79.392,142.99,59.588,0.19982,83.474,60.761,146.69,0.20711,orthorhombic,2.6137,8.37051742,H2
mp-862864,Pa3Ge,Pa3Ge,107.33,161,64.4,0.25,107.33,101.73,37.903,0.34203,107.33,51.152,132.42,0.29438,cubic,0,14.07684004,H1a
mp-1019,YNi2,YNi2,121,125.78,47.4,0.32675,121,121.09,45.413,0.33321,121,46.406,123.44,0.32997,cubic,0,7.419684709,H1a
mp-1018725,HoFeSi,HoFeSi,95,151.55,61.4,0.23412,88.163,132.46,53.003,0.24959,91.581,57.201,142.03,0.24152,tetragonal,0,7.921780246,H4
mp-975913,PrNbO3,PrNbO3,179.67,128.68,46.6,0.38064,179.67,32.843,11.175,0.46953,179.67,28.887,82.254,0.4237,cubic,0,6.855145839,H1a
mp-1029506,CaSiN2,CaSiN2,115.67,96.369,35.4,0.36114,110.01,158.4,62.857,0.26002,112.84,49.129,128.71,0.3099,orthorhombic,2.1962,3.105473886,H2
mp-20714,FeSb2,FeSb2,91.667,156.54,64.4,0.21538,82.034,132.58,53.868,0.23063,86.85,59.134,144.59,0.22253,orthorhombic,0,8.054637195,H4
mp-21425,UNiSn,UNiSn,108.33,139.36,54.2,0.2856,108.33,123.49,47.134,0.31001,108.33,50.667,131.5,0.29769,cubic,0.0233,10.80802984,H5
mp-15964,Hf3Sb,Hf3Sb,114,129.95,49.6,0.31001,113.92,125.7,47.755,0.31609,113.96,48.677,127.83,0.31304,tetragonal,0,12.13120138,H4