Material_ID,Formula,pretty_formula,KV ,EV ,GV ,PV ,KR ,ER ,GR ,PR ,bulk,shear,young,poisson,csyst,gap,density,y_cla
mp-571350,Ba(AsPd)2,Ba(AsPd)2,73.222,80.884,30.733,0.31589,73.217,78.342,29.638,0.32167,73.219,30.185,79.616,0.31877,tetragonal,0,7.647889933,H4
mp-30613,ErSn2,ErSn2,60.889,92.165,36.933,0.24772,59.238,83.674,33.084,0.26458,60.063,35.008,87.94,0.25598,orthorhombic,0,8.615216305,H4
mp-977181,NaMo3,NaMo3,120,72.224,25.8,0.39969,120,19.901,6.7582,0.47236,120,16.279,46.724,0.4351,cubic,0,7.839056759,H1a
mp-862617,AcAl3,AcAl3,57.889,96.21,39.333,0.223,57.242,82.427,32.709,0.26,57.566,36.021,89.414,0.24112,hexagonal,0,5.243535474,H4
mp-628,Zr2Co,Zr2Co,113.56,64.461,22.933,0.40539,101.22,47.099,16.556,0.42245,107.39,19.744,55.813,0.41338,tetragonal,0,7.170771011,H4
mp-865515,YMgZn2,YMgZn2,58.667,94.162,38.2,0.23249,58.667,83.083,32.866,0.26397,58.667,35.533,88.693,0.24803,cubic,0,5.072064587,H1a
mp-19962,Sn2Pt,Sn2Pt,93,66.297,24,0.38119,93,65.686,23.76,0.38228,93,23.88,65.992,0.38174,cubic,0,10.20040239,H1a
mp-546079,MgCO3,MgCO3,97.556,36.607,12.733,0.43746,76.367,99.262,38.673,0.28337,86.961,25.703,70.193,0.36547,orthorhombic,5.1935,3.084978943,H2
mp-2909,HoAlNi,HoAlNi,76.667,101.79,39.8,0.27872,69.81,55.821,20.421,0.36673,73.238,30.111,79.445,0.31921,hexagonal,0,7.740538762,H4
mp-7940,KNbSe2,KNbSe2,57.444,89.884,36.267,0.23921,57.431,88.755,35.718,0.24243,57.438,35.992,89.32,0.24082,hexagonal,0.6861,5.134904131,H1a
mp-5126,ZnSO4,ZnSO4,71.222,86.055,33.133,0.29862,65.479,79.132,30.468,0.29858,68.35,31.801,82.594,0.2986,orthorhombic,3.8233,3.722453849,H2
mp-1025565,HoO3,HoO3,74.333,84.411,32.2,0.31074,74.187,72.846,27.256,0.33635,74.26,29.728,78.684,0.3234,hexagonal,0.2174,5.701386902,H1a
mvc-11780,MoS2,MoS2,65,84.671,33,0.28289,65,84.671,33,0.28289,65,33,84.671,0.28289,cubic,0,4.808104566,H1a
mp-760400,Na5BiO5,Na5BiO5,54.556,95.136,39.333,0.20936,53.658,87.13,35.437,0.22937,54.107,37.385,91.16,0.2192,monoclinic,0.8527,4.211669195,H4
mp-754516,LiNiP,LiNiP,65.444,87.959,34.467,0.276,65.235,80.823,31.242,0.29351,65.34,32.854,84.414,0.28468,tetragonal,0,3.96007057,H4
mp-11228,YAl,YAl,64.222,104.93,42.733,0.2277,55.114,70.143,27.232,0.28789,59.668,34.983,87.791,0.25478,orthorhombic,0,3.879845028,H4
mp-35591,LiErS2,LiErS2,59.222,96.209,39.133,0.22924,49.313,85.578,35.34,0.21077,54.268,37.237,90.916,0.22078,tetragonal,1.9887,4.938073791,H1a
mp-9571,Ca(ZnAs)2,Ca(ZnAs)2,57.556,91.276,36.933,0.23569,57.115,87.016,34.916,0.24608,57.335,35.925,89.154,0.24084,trigonal,0.3906,4.959876914,H2
mp-982869,PmYAl2,PmYAl2,63,103.09,42,0.22727,63,67.029,25.338,0.32267,63,33.669,85.735,0.27319,cubic,0,4.899133969,H1a
mp-1019361,ThSbTe,ThSbTe,69,85.387,33,0.29375,68.843,78.482,29.955,0.31,68.922,31.478,81.956,0.30181,tetragonal,0,8.813341712,H4
mp-19943,YCuSb2,YCuSb2,71.556,84.302,32.333,0.30364,69.041,77.759,29.627,0.31229,70.298,30.98,81.037,0.30787,tetragonal,0,7.153624583,H4
mp-1018104,Zr2Cd,Zr2Cd,78.333,95.004,36.6,0.29786,78.333,55.108,19.927,0.38275,78.333,28.264,75.688,0.33896,tetragonal,0,7.235683329,H4
mp-3277,BAsO4,BAsO4,47.667,101.64,44.4,0.14461,43.874,88.723,38.145,0.16296,45.77,41.273,95.202,0.15333,tetragonal,4.4406,3.437809725,H4
mp-11470,Hg2Pt,Hg2Pt,86.333,81.62,30.4,0.34243,80.461,62.582,22.834,0.37037,83.397,26.617,72.173,0.35576,tetragonal,0,14.14408034,H4
mp-10446,Sc6NiTe2,Sc6NiTe2,73.111,89.806,34.667,0.29528,72.839,68.121,25.34,0.34413,72.975,30.004,79.162,0.3192,hexagonal,0,4.940822856,H4
mp-1563,CaSi,CaSi,53.333,92.513,38.2,0.2109,52.806,90.266,37.143,0.2151,53.07,37.672,91.391,0.21299,orthorhombic,0,2.377161219,H4
mp-11471,ScHg,ScHg,76,89.217,34.2,0.30435,76,64.494,23.736,0.35856,76,28.968,77.108,0.3309,cubic,0,9.281450893,H1a
mp-864934,MgAg3,MgAg3,78,79.301,29.8,0.33055,77.993,72.077,26.775,0.34598,77.997,28.288,75.71,0.33822,hexagonal,0,7.982942325,H4
mp-756784,LiSbS2,LiSbS2,65.556,89.856,35.333,0.27155,65.006,78.061,30.027,0.29986,65.281,32.68,84.02,0.28549,tetragonal,0,3.95832844,H4
mp-867121,LiY2Pt,LiY2Pt,71.667,79.902,30.4,0.31418,71.667,79.884,30.392,0.31422,71.667,30.396,79.893,0.3142,cubic,0,7.15774864,H1a
mp-21271,PrMnGe,PrMnGe,66.222,88.258,34.533,0.27787,65.669,78.755,30.287,0.30012,65.946,32.41,83.545,0.28885,tetragonal,0,6.779693719,H4
mp-979423,YGa3,YGa3,54,91.946,37.8,0.21622,54,89.485,36.56,0.22381,54,37.18,90.72,0.22,cubic,0,6.297013483,H1a
mp-19762,UPb3,UPb3,127.67,46.075,16,0.43985,127.67,34.472,11.846,0.455,127.67,13.923,40.304,0.44738,cubic,0,12.5963752,H1a
mp-2327,TiZn16,TiZn16,79.333,77.551,29,0.33708,78.566,72.401,26.887,0.34641,78.95,27.943,74.983,0.34171,orthorhombic,0,7.014325195,H4
mp-5251,Ca4CN4,Ca4CN4,68.111,86.713,33.667,0.28782,65.061,79.51,30.668,0.29632,66.586,32.167,83.117,0.29196,orthorhombic,2.0974,2.634574818,H2
mp-552008,DyBi2ClO4,DyBi2ClO4,76.222,100.68,39.333,0.27985,62.099,61.754,23.142,0.33426,69.16,31.238,81.45,0.30372,tetragonal,1.4562,8.189800366,H1a
mp-975106,Rb2Bi2O5,Rb2Bi2O5,67.889,96.784,38.333,0.2624,50.506,78.421,31.59,0.24122,59.197,34.962,87.633,0.25327,tetragonal,0,6.426168535,H4
mp-8372,CaSi2,CaSi2,64.111,97.828,39.267,0.24568,54.981,76.954,30.375,0.26672,59.546,34.821,87.422,0.25531,trigonal,0,2.468573349,H2
mp-505569,CeH2,CeH2,67,90.297,35.4,0.27538,67,75.069,28.581,0.31326,67,31.991,82.794,0.29404,cubic,0,5.811499395,H1a
mp-978515,SmYAl2,SmYAl2,62.667,103.79,42.4,0.22396,62.667,65.551,24.724,0.32566,62.667,33.562,85.434,0.27278,cubic,0,5.031128655,H1a
mp-7093,HoAgGe,HoAgGe,79.889,76.493,28.533,0.34042,78.583,72.757,27.033,0.34569,79.236,27.783,74.627,0.34303,hexagonal,0,8.958476944,H4
mp-4697,Zn(CrSe2)2,Zn(CrSe2)2,68.667,83.542,32.2,0.29723,68.667,79.649,30.478,0.30668,68.667,31.339,81.602,0.30194,cubic,0.0491,5.405418922,H5
mp-614777,NiF3,NiF3,54.556,106.13,45.133,0.17577,47.719,77.671,31.607,0.22872,51.137,38.37,92.08,0.19989,trigonal,0.992,4.240796202,H2
mp-18740,V2Cd2O7,V2Cd2O7,87.111,73.579,27.067,0.35922,83.081,67.495,24.731,0.3646,85.096,25.899,70.54,0.36184,monoclinic,2.5957,4.447748301,H2
mp-12710,PrZnPd,PrZnPd,79,76.561,28.6,0.33848,78.385,73.22,27.233,0.34432,78.692,27.917,74.893,0.34138,hexagonal,0,7.967337122,H4
mp-78,Ge,Ge,62.111,87.686,34.667,0.26471,61.843,83.76,32.866,0.27427,61.977,33.766,85.73,0.26946,tetragonal,0,6.252004447,H4
mp-975608,Li2TlPt,Li2TlPt,54.667,99.93,41.8,0.19534,54.667,79.625,31.667,0.25724,54.667,36.733,90.034,0.22551,cubic,0,10.72974814,H1a
mp-4002,Li2ZrF6,Li2ZrF6,58.333,90.808,36.6,0.24055,57.203,85.625,34.236,0.25052,57.768,35.418,88.224,0.24547,trigonal,6.481,3.459404969,H2
mp-752927,LiAgF2,LiAgF2,79.889,77.45,28.933,0.33842,79.579,70.602,26.108,0.35213,79.734,27.52,74.043,0.34523,hexagonal,1.6826,5.449096939,H1a
mp-128,Ge,Ge,52.333,94.488,39.4,0.19908,50.678,88.865,36.79,0.20775,51.506,38.095,91.681,0.20333,trigonal,0,5.575408314,H2
mp-867223,LiGa2Ni,LiGa2Ni,87,119.05,46.8,0.27193,87,10.78,3.6435,0.47935,87,25.222,68.998,0.36782,cubic,0,6.53273574,H1a
mp-445,NdCo2,NdCo2,120.11,49.431,17.267,0.43141,117.93,42.705,14.832,0.43965,119.02,16.049,46.077,0.43548,cubic,0,9.043087147,H1a
mp-11959,CaSn2Rh,CaSn2Rh,67.111,90.03,35.267,0.27642,64.788,75.881,29.078,0.3048,65.95,32.172,83.017,0.2902,orthorhombic,0,6.918239868,H4
mp-3833,Mg(AlSi)2,Mg(AlSi)2,65.667,86.113,33.6,0.28144,62.374,82.345,32.167,0.27997,64.021,32.883,84.229,0.28072,trigonal,0,2.314534274,H2
mp-1018051,KTiS2,KTiS2,57.222,91.994,37.333,0.23206,57.221,84.65,33.767,0.25344,57.222,35.55,88.354,0.24266,trigonal,0,2.959813096,H2
mp-972623,SmHgAu2,SmHgAu2,85.333,4.1772,1.4,0.49184,85.333,125.49,50,0.2549,85.333,25.7,70.066,0.36315,cubic,0,13.81837716,H1a
mp-961688,VGaPt,VGaPt,121.67,44.33,15.4,0.43927,121.67,43.825,15.217,0.43997,121.67,15.309,44.077,0.43962,cubic,0,10.26086968,H1a
mp-21199,Na3(GePt)4,Na3(GePt)4,83,71.608,26.4,0.35621,83,71.557,26.379,0.35631,83,26.39,71.582,0.35626,cubic,0,8.215484114,H1a
mp-10026,ScTe,ScTe,64.667,94.066,37.4,0.25756,60.824,75.567,29.223,0.29293,62.745,33.312,84.909,0.27446,hexagonal,0,5.551644538,H4
mp-981,SrF2,SrF2,65.333,83.853,32.6,0.28609,65.333,82.604,32.035,0.28928,65.333,32.317,83.229,0.28768,cubic,6.7761,4.133836695,H2
mp-864837,Nd2CuRu,Nd2CuRu,80.333,73.324,27.2,0.34787,80.333,73.319,27.198,0.34789,80.333,27.199,73.322,0.34788,cubic,0,8.416428521,H1a
mp-981207,Yb3In3Ge2Au,Yb3In3Ge2Au,52.222,91.617,37.933,0.20761,52.105,90.454,37.357,0.21067,52.164,37.645,91.036,0.20913,hexagonal,0,9.484588418,H4
mp-1014373,CrN2,CrN2,102.33,57.914,20.6,0.40568,102.33,57.846,20.574,0.40579,102.33,20.587,57.88,0.40573,cubic,0,2.093094066,H1a
mp-570113,BiAu2,BiAu2,102,58.954,21,0.40367,102,57.132,20.308,0.40665,102,20.654,58.044,0.40516,cubic,0,15.08241124,H1a
mp-973606,Nd2IrAu,Nd2IrAu,85.333,70.809,26,0.3617,85.333,68.683,25.143,0.36585,85.333,25.571,69.747,0.36377,cubic,0,11.75568235,H1a
mp-20522,TmAgPb,TmAgPb,68.556,82.475,31.733,0.29949,68.353,79.626,30.488,0.30585,68.454,31.111,81.053,0.30266,hexagonal,0,10.91070993,H4
mp-12087,Cu2S,Cu2S,97.333,67.044,24.2,0.3852,97.333,55.376,19.704,0.40518,97.333,21.952,61.252,0.39512,cubic,0.0338,6.173936188,H5
mp-8456,SrAsPt,SrAsPt,77.667,81.612,30.8,0.32487,66.645,75.493,28.788,0.31121,72.156,29.794,78.568,0.31852,hexagonal,0,8.145339989,H4
mp-553939,CaCO3,CaCO3,75,86.337,33,0.30814,67.828,71.709,27.084,0.3238,71.414,30.042,79.043,0.31553,orthorhombic,4.7183,2.574462285,H2
mp-22936,Ca2NCl,Ca2NCl,53.222,91.954,37.933,0.21204,52.916,88.595,36.281,0.22096,53.069,37.107,90.28,0.21647,trigonal,2.4103,2.779581585,H2
mp-30739,Mg3Ir,Mg3Ir,77,79.185,29.8,0.3286,76.903,71.372,26.526,0.34532,76.952,28.163,75.302,0.3369,hexagonal,0,5.843862155,H4
mp-16263,CaZnGe,CaZnGe,53.667,97.271,40.6,0.19792,44.767,87.291,37.144,0.17502,49.217,38.872,92.313,0.18739,hexagonal,0,4.447898387,H4
mp-6962,Ba(AsPd)2,Ba(AsPd)2,65.667,88.726,34.8,0.27481,62.008,78.932,30.645,0.28784,63.837,32.723,83.842,0.28111,tetragonal,0,7.562025146,H4
mp-861646,ThCdRh2,ThCdRh2,122,65.982,23.4,0.40986,122,19.7,6.6867,0.47309,122,15.043,43.348,0.44078,cubic,0,11.45292975,H1a
mp-754567,NaCdO2,NaCdO2,72.333,81.375,31,0.3125,70.19,76.645,29.076,0.31801,71.262,30.038,79.013,0.31521,trigonal,0,5.161379033,H2
mp-17875,Ca6GaN5,Ca6GaN5,71.333,93.764,36.6,0.28093,71.254,63.355,23.433,0.35181,71.294,30.017,78.967,0.31539,hexagonal,0.8703,2.972318589,H1a
mp-1640,Ho2C,Ho2C,66.111,96.654,38.467,0.25633,63.204,69.175,26.251,0.31759,64.658,32.359,83.197,0.28554,trigonal,0,8.412835248,H2
mp-11752,Lu7(NiTe)2,Lu7(NiTe)2,61.444,87.112,34.467,0.26371,59.883,84.239,33.282,0.26555,60.664,33.874,85.676,0.26462,orthorhombic,0,9.764624902,H4
mp-28006,Ca(Cu2As)2,Ca(Cu2As)2,78.778,99.246,38.467,0.29003,76.11,48.544,17.416,0.3937,77.444,27.941,74.825,0.33897,trigonal,0,6.521875455,H2
mp-11202,Y6FeSb2,Y6FeSb2,59.444,88.332,35.267,0.25234,58.871,84.815,33.66,0.25989,59.158,34.463,86.577,0.25608,hexagonal,0,5.674386773,H4
mp-982004,SmInPd,SmInPd,76.778,79.785,30.067,0.3268,74.38,72.25,26.997,0.33811,75.579,28.532,76.028,0.33234,hexagonal,0,8.944395081,H4
mp-8982,CaSiPt,CaSiPt,63.667,91.297,36.2,0.261,56.946,80.335,31.756,0.26488,60.306,33.978,85.817,0.26283,monoclinic,0,7.269218147,H4
mp-9556,SrZnSi,SrZnSi,50.667,95.376,40.2,0.18626,47.724,88.854,37.343,0.1897,49.195,38.771,92.115,0.18793,hexagonal,0,4.139152144,H4
mp-999460,NaScS2,NaScS2,56.778,90.109,36.467,0.23549,55.512,86.414,34.829,0.24055,56.145,35.648,88.263,0.23799,trigonal,1.7086,2.689469751,H2
mp-999124,TbPd,TbPd,79.222,77.38,28.933,0.33721,76.873,71.213,26.461,0.34561,78.048,27.697,74.302,0.34133,orthorhombic,0,9.654317344,H4
mp-19219,Li3VO4,Li3VO4,63.111,84.451,33.067,0.27698,62.572,83.976,32.898,0.27632,62.842,32.982,84.214,0.27665,orthorhombic,4.0554,2.536133858,H2
mp-978986,Sr(GePd)2,Sr(GePd)2,62.444,87.332,34.467,0.26691,61.118,82.364,32.289,0.2754,61.781,33.378,84.853,0.27109,tetragonal,0,7.295677177,H4
mp-862711,Sc2CdIn,Sc2CdIn,67.333,102.25,41,0.24691,67.333,58.651,21.645,0.35482,67.333,31.323,81.353,0.29863,cubic,0,5.85576712,H1a
mp-7239,PrMgGa,PrMgGa,50.111,94.531,39.867,0.18559,49.968,88.666,36.814,0.20426,50.039,38.34,91.621,0.19484,hexagonal,0,5.222882192,H4
mp-548469,BaZnSO,BaZnSO,58.667,90.486,36.4,0.24294,58.095,83.284,33.021,0.26107,58.381,34.711,86.908,0.25189,orthorhombic,2.2367,5.165024818,H2
mp-603347,TiNi,TiNi,150.33,93.291,33.4,0.39657,57.802,18.374,6.3489,0.44702,104.07,19.874,56.055,0.41023,orthorhombic,0,6.629376485,H4
mp-1831,SrAu5,SrAu5,91.222,67.039,24.333,0.37752,88.251,65.282,23.709,0.37671,89.737,24.021,66.161,0.37712,hexagonal,0,13.41846705,H4
mp-11313,ZrCd3,ZrCd3,77.333,91.236,35,0.30337,77.333,57.21,20.778,0.3767,77.333,27.889,74.688,0.33903,cubic,0,8.172109088,H1a
mp-30578,DyCu5,DyCu5,107,54.349,19.2,0.41534,107,53.393,18.842,0.41683,107,19.021,53.871,0.41609,cubic,0,9.219759053,H1a
mp-7885,AlAgS2,AlAgS2,77.111,84.488,32.067,0.31739,75.669,65.772,24.268,0.35513,76.39,28.167,75.252,0.33582,trigonal,1.7128,4.412872624,H2
mp-5498,Ca(MnAs)2,Ca(MnAs)2,59.889,92.319,37.133,0.24308,59.376,79.497,31.13,0.27685,59.632,34.132,85.989,0.25967,trigonal,0,5.134898944,H2
mp-542172,YbMgGe,YbMgGe,46.444,94.437,40.667,0.16111,45.674,92.49,39.781,0.1625,46.059,40.224,93.463,0.1618,orthorhombic,0,6.493016123,H4
mp-603640,GaAs,GaAs,67.667,86.927,33.8,0.2859,66.992,75.3,28.682,0.31266,67.329,31.241,81.169,0.29907,orthorhombic,0,6.201069722,H4
mp-978918,TbZr,TbZr,64.444,83.835,32.667,0.28319,63.309,82.857,32.319,0.28187,63.876,32.493,83.346,0.28253,hexagonal,0,7.642072987,H4
mp-865799,Yb2AsAu,Yb2AsAu,55,91.068,37.2,0.22404,55,86.13,34.758,0.239,55,35.979,88.614,0.23147,cubic,0.1624,11.13891146,H5
mp-865602,Y2MgAl,Y2MgAl,55,99.288,41.4,0.19913,55,77.301,30.536,0.26575,55,35.968,88.592,0.23154,cubic,0,3.802879771,H1a
mp-23558,Ag2BiO3,Ag2BiO3,101.11,60.667,21.667,0.4,98.073,57.137,20.364,0.4029,99.592,21.015,58.903,0.40143,orthorhombic,0.4484,8.217745232,H2
mp-12411,Li2ZnGe,Li2ZnGe,48.333,100.21,43.4,0.15446,48.333,83.691,34.543,0.21141,48.333,38.971,92.148,0.18225,cubic,0.0745,4.288229092,H5
mp-2170,Li2Pt,Li2Pt,72.222,91.138,35.333,0.28968,63.548,69.877,26.534,0.31673,67.885,30.934,80.564,0.3022,hexagonal,0,8.504145626,H4
mp-865547,Pm2CuSi,Pm2CuSi,75.667,76.2,28.6,0.33216,75.667,74.67,27.955,0.33553,75.667,28.278,75.436,0.33384,cubic,0,6.887681803,H1a
mp-862673,LiY2Ru,LiY2Ru,72.667,78.649,29.8,0.31961,72.667,76.146,28.727,0.32535,72.667,29.263,77.4,0.32248,cubic,0,5.65201866,H1a
mp-16260,Ca(GePd)2,Ca(GePd)2,84.444,73.851,27.267,0.35424,82.736,66.033,24.153,0.36698,83.59,25.71,69.957,0.36052,tetragonal,0,6.829803048,H4
mp-31380,SmPd,SmPd,80.444,74.463,27.667,0.34572,79.196,70.483,26.073,0.35167,79.82,26.87,72.476,0.34867,orthorhombic,0,8.935677978,H4
mp-972420,YErAg2,YErAg2,69.333,80.482,30.8,0.30653,69.333,78.376,29.878,0.3116,69.333,30.339,79.431,0.30906,cubic,0,8.149498488,H1a
mp-979425,YHoAg2,YHoAg2,69.333,80.482,30.8,0.30653,69.333,78.376,29.878,0.3116,69.333,30.339,79.431,0.30906,cubic,0,8.070316174,H1a
mp-9027,TiS2,TiS2,56,87.717,35.4,0.23894,56,87.685,35.385,0.23903,56,35.392,87.701,0.23898,cubic,0.006,3.143338884,H5
mp-8278,Ba(MgP)2,Ba(MgP)2,50.889,91.536,38.133,0.20021,50.864,89.581,37.126,0.20647,50.876,37.629,90.561,0.20333,trigonal,1.1326,3.235438937,H2
mp-10969,CdCN2,CdCN2,92.889,77.155,28.333,0.36156,80.196,58.207,21.104,0.37903,86.542,24.719,67.71,0.3696,trigonal,2.3417,4.596316761,H2
mp-561412,CaCO3,CaCO3,77.333,85.289,32.4,0.31619,73.111,65.379,24.197,0.35096,75.222,28.299,75.436,0.33286,monoclinic,4.9963,2.601889128,H2
mp-570014,YbSbPt,YbSbPt,77.333,78.752,29.6,0.33028,77.333,69.122,25.581,0.35103,77.333,27.591,73.975,0.34057,cubic,0,11.16146143,H1a
mp-962063,LaMgTl,LaMgTl,86.333,67.899,24.8,0.36892,86.333,67.675,24.711,0.36935,86.333,24.755,67.787,0.36914,cubic,0.053,6.609976164,H5
mp-1029312,RbVN2,RbVN2,55.556,91.503,37.333,0.22549,55.366,84.155,33.752,0.24667,55.461,35.543,87.859,0.23597,tetragonal,0.7071,3.853054429,H1a
mp-1029542,Na6MoN4,Na6MoN4,53.111,89.818,36.867,0.21814,52.757,88.727,36.373,0.2197,52.934,36.62,89.273,0.21892,tetragonal,1.3686,2.925950738,H1a
mp-9586,NbSnS2,NbSnS2,70.778,97.7,38.467,0.26994,70.729,57.461,21.054,0.3646,70.754,29.761,78.303,0.31555,hexagonal,0,5.335198794,H4
mp-550306,YCu2Bi2(SeO2)2,YCu2Bi2(SeO2)2,66.111,91.981,36.267,0.26812,55.727,77.147,30.391,0.26927,60.919,33.329,84.564,0.26864,tetragonal,0,7.470141539,H4
mp-10600,La3AlC,La3AlC,61.333,84.376,33.2,0.27072,61.333,84.238,33.136,0.27109,61.333,33.168,84.307,0.27091,cubic,0,5.365885189,H1a
mp-975463,RbAcO3,RbAcO3,61.667,86.164,34,0.26712,61.667,81.931,32.04,0.27857,61.667,33.02,84.057,0.27282,cubic,0,6.006738422,H1a
mp-972898,Sc2GaAu,Sc2GaAu,62.333,90.987,36.2,0.25672,62.333,76.009,29.307,0.29677,62.333,32.753,83.615,0.27643,cubic,0,7.520526244,H1a
mp-862588,LiDy2Tc,LiDy2Tc,66.333,81.362,31.4,0.29557,66.333,80.768,31.135,0.29706,66.333,31.267,81.065,0.29632,cubic,0,8.42718336,H1a
mp-8689,V4GeSe8,V4GeSe8,55,88.657,36,0.23134,55,87.225,35.294,0.23568,55,35.647,87.942,0.23351,cubic,0,5.606234894,H1a
mp-861605,AcH3,AcH3,68.667,117.58,48.4,0.21462,68.667,35.14,12.419,0.41471,68.667,30.41,79.494,0.30705,cubic,0.6846,7.806884145,H5
mp-31337,InPd3,InPd3,69,104.75,42,0.24699,69,51.151,18.581,0.37645,69,30.29,79.271,0.30852,cubic,0,10.88686488,H1a
mp-861956,LiPm2Ir,LiPm2Ir,80.333,73.324,27.2,0.34787,80.333,70.011,25.839,0.35475,80.333,26.519,71.672,0.3513,cubic,0,8.895201078,H1a
mp-866150,LiSm2Os,LiSm2Os,72.333,78.141,29.6,0.31995,72.333,75.82,28.605,0.3253,72.333,29.103,76.983,0.32262,cubic,0,9.367923431,H1a
mp-1025345,Ti2CrTe4,Ti2CrTe4,49.444,95.009,40.267,0.17975,47.897,87.552,36.622,0.19535,48.671,38.444,91.295,0.18737,monoclinic,0,6.441807916,H4
mp-11822,Ca3GeN,Ca3GeN,54.667,89.365,36.4,0.22754,54.667,86.533,35,0.23618,54.667,35.7,87.954,0.23185,cubic,0,3.060417438,H1a
mp-754218,Tb2SeO2,Tb2SeO2,84.889,106.68,41.333,0.29054,83.434,26.512,9.1607,0.44704,84.161,25.247,68.856,0.36364,orthorhombic,2.1375,7.784284525,H2
mp-1024991,ErCu2,ErCu2,83.667,74.597,27.6,0.3514,79.337,66.719,24.532,0.35984,81.502,26.066,70.665,0.35549,orthorhombic,0,9.341567898,H4
mp-11973,YbSnRh,YbSnRh,88.556,76.808,28.333,0.35544,84.886,57.095,20.569,0.3879,86.721,24.451,67.052,0.37113,hexagonal,0,10.27805947,H4
mp-961695,LaCoTe,LaCoTe,72.333,95.705,37.4,0.27948,72.333,56.622,20.672,0.36953,72.333,29.036,76.828,0.32298,cubic,0.6705,7.57663201,H5
mp-22620,CeZnSbO,CeZnSbO,84.889,79.874,29.733,0.34318,80.537,59.286,21.522,0.37731,82.713,25.628,69.686,0.35958,tetragonal,0,6.86778636,H4
mp-977415,HoCdAu2,HoCdAu2,87,73.406,27,0.35938,87,59.847,21.6,0.38535,87,24.3,66.691,0.37224,cubic,0,13.1689872,H1a
mp-866082,MgSc2Tc,MgSc2Tc,90,64.601,23.4,0.38037,90,64.575,23.39,0.38042,90,23.395,64.588,0.38039,cubic,0,4.610023951,H1a
mp-34903,MgGeP2,MgGeP2,64.889,87.124,34.133,0.27622,64.062,76.334,29.327,0.30141,64.475,31.73,81.776,0.28861,tetragonal,1.5225,2.926203256,H1a
mp-979009,Th3Be,Th3Be,71.333,78.01,29.6,0.31773,71.333,76.567,28.978,0.3211,71.333,29.289,77.289,0.31942,cubic,0,10.71422859,H1a
mp-558059,LiMnF4,LiMnF4,63.111,89.187,35.267,0.26447,60.854,77.26,29.983,0.2884,61.983,32.625,83.265,0.27611,monoclinic,1.8523,3.269920555,H4
mp-752947,NaTiS2,NaTiS2,54.222,89.499,36.533,0.2249,52.968,87.007,35.478,0.22623,53.595,36.006,88.253,0.22555,trigonal,0,3.013441254,H2
mp-20097,Pt3PbC,Pt3PbC,111.67,49.08,17.2,0.42675,111.67,48.925,17.143,0.42698,111.67,17.171,49.003,0.42686,cubic,0,16.25075409,H1a
mp-864787,NpCdPt2,NpCdPt2,63.333,86.086,33.8,0.27346,63.333,78.63,30.404,0.29308,63.333,32.102,82.386,0.28319,cubic,0,15.93450301,H1a
mp-864933,Mg2AgRh,Mg2AgRh,89,97.953,37.2,0.31657,89,29.182,10.095,0.44535,89,23.648,65.171,0.37796,cubic,0,6.47745024,H1a
mp-867259,RhCl2,RhCl2,80.111,75.395,28.067,0.34314,76.679,69.581,25.795,0.34876,78.395,26.931,72.491,0.34589,tetragonal,0,4.782098685,H4
mp-753192,Yb4Sb2O,Yb4Sb2O,53.556,90.487,37.133,0.2184,53.31,86.042,34.948,0.231,53.433,36.041,88.275,0.22466,tetragonal,0.6568,9.036668044,H1a
mp-989578,Rb2NaInF6,Rb2NaInF6,52.333,89.437,36.8,0.21517,52.333,88.331,36.24,0.21869,52.333,36.52,88.885,0.21693,cubic,5.2472,4.03632718,H2