Material_ID,Formula,pretty_formula,KV ,EV ,GV ,PV ,KR ,ER ,GR ,PR ,bulk,shear,young,poisson,csyst,gap,density,y_cla
mp-862546,Sc2AlRu,Sc2AlRu,111,109.04,40.8,0.33628,111,90.466,33.158,0.36417,111,36.979,99.849,0.35008,cubic,0,5.046351123,H1a
mp-1016929,MgRhO3,MgRhO3,165.44,61.73,21.467,0.43781,165.44,60.405,20.986,0.43915,165.44,21.227,61.068,0.43848,cubic,0,4.903871935,H1a
mp-30876,Zr3Sn,Zr3Sn,102.67,111.81,42.4,0.31849,102.67,98.891,36.914,0.33946,102.67,39.657,105.4,0.3289,cubic,0,7.220170653,H1a
mvc-6477,NiO2,NiO2,82.111,123.58,49.467,0.24915,81.282,113.94,44.985,0.26638,81.696,47.226,118.79,0.25766,orthorhombic,0,4.995021751,H4
mp-972925,ScZn2Au,ScZn2Au,103,125.98,48.6,0.29614,103,83.218,30.475,0.36534,103,39.537,105.16,0.32984,cubic,0,9.268233176,H1a
mp-983578,CsBiO3,CsBiO3,59,131.4,58.2,0.12883,59,130.26,57.533,0.13204,59,57.866,130.83,0.13043,cubic,0,7.50991693,H1a
mp-2573,NpAl3,NpAl3,60.333,132.46,58.4,0.13409,60.333,127.99,55.821,0.14644,60.333,57.11,130.24,0.14023,cubic,0,6.833835144,H1a
mp-961712,TaTlPt,TaTlPt,71,128.09,53.4,0.19932,71,121.68,50.102,0.21436,71,51.751,124.91,0.2068,cubic,1.0451,15.23045979,H5
mp-569197,GdNiSb,GdNiSb,75.333,125.23,51.2,0.22294,75.333,119.65,48.428,0.2353,75.333,49.814,122.45,0.22909,cubic,0,8.567930958,H1a
mp-2221,Zr2Ag,Zr2Ag,101.33,118.05,45.2,0.30584,101.25,94.027,34.948,0.34523,101.29,40.074,106.22,0.32523,tetragonal,0,7.428326791,H4
mp-30307,DyBiRh,DyBiRh,102,107.06,40.4,0.32506,101.02,105.04,39.587,0.3267,101.51,39.993,106.05,0.32587,hexagonal,0,11.59036533,H4
mp-22731,MnInNi2,MnInNi2,132.33,131.8,49.4,0.33401,132.33,33.291,11.416,0.45807,132.33,30.408,84.734,0.39328,cubic,0,8.613860184,H1a
mp-625150,ScHO2,ScHO2,87.333,134.73,54.2,0.24288,68.519,107,43.153,0.23974,77.926,48.676,120.86,0.2415,orthorhombic,4.4261,2.994110049,H2
mp-24011,CeHSe,CeHSe,72.778,124.16,51.067,0.21566,72.539,123.54,50.792,0.21615,72.658,50.929,123.85,0.21591,hexagonal,0,6.661909572,H4
mp-862340,Sc2GaCu,Sc2GaCu,85.667,120.91,47.8,0.26476,85.667,111.26,43.341,0.28354,85.667,45.571,116.12,0.27408,cubic,0,5.099037016,H1a
mp-5239,NdSiRu,NdSiRu,88.889,130.82,52.133,0.25471,76.18,105.19,41.419,0.26986,82.534,46.776,118.03,0.26165,tetragonal,0,7.291490608,H4
mp-7476,RbDyO2,RbDyO2,80.778,127.76,51.667,0.23639,78.615,111.57,44.15,0.26348,79.696,47.908,119.73,0.24961,trigonal,3.6726,6.628256639,H2
mp-30933,ZrBi,ZrBi,84.667,124.49,49.6,0.25494,83.339,109.62,42.796,0.28077,84.003,46.198,117.12,0.26762,orthorhombic,0,9.714647145,H4
mp-638765,Al2O3,Al2O3,88.667,144.87,59,0.22769,67.95,95.945,37.933,0.26467,78.309,48.466,120.53,0.24347,triclinic,1.1355,2.715293349,H5
mp-30885,YZn5,YZn5,78.667,121.73,49,0.24211,78.372,119.02,47.726,0.2469,78.52,48.363,120.37,0.24449,hexagonal,0,6.674758074,H4
mp-19033,WO3,WO3,59.333,139.59,63,0.10788,53.07,123.72,55.655,0.11147,56.202,59.327,131.66,0.10957,monoclinic,1.5648,6.87052665,H4
mp-5020,BaTiO3,BaTiO3,97.556,156.6,63.533,0.23245,95.936,54.722,19.475,0.40493,96.746,41.504,108.93,0.31234,trigonal,2.6212,5.696967708,H2
mp-984729,BaSr3O4,BaSr3O4,77.333,120.96,48.8,0.23932,77.333,120.92,48.78,0.2394,77.333,48.79,120.94,0.23936,cubic,2.5199,5.097083666,H2
mp-1016848,SrIrO3,SrIrO3,72.667,123.6,50.8,0.21652,72.667,123.56,50.781,0.2166,72.667,50.791,123.58,0.21656,cubic,0,8.518451757,H1a
mp-866298,BaNaScSi2O7,BaNaScSi2O7,89.333,122.56,48.2,0.27135,85.753,106.77,41.306,0.29248,87.543,44.753,114.71,0.28161,monoclinic,4.5949,3.742730326,H2
mp-753181,SrCu2O3,SrCu2O3,108.67,134.09,51.8,0.29434,75.611,89.481,34.343,0.30276,92.139,43.071,111.79,0.29778,orthorhombic,0,5.268413116,H4
mp-1018013,Ti2InNi,Ti2InNi,159.33,96.272,34.4,0.3993,159.33,32.188,10.976,0.46633,159.33,22.688,64.979,0.43203,cubic,0,6.740051228,H1a
mp-30069,CuNi2Sb,CuNi2Sb,149,128.57,47.4,0.35619,149,10.846,3.6449,0.48787,149,25.522,72.432,0.41898,cubic,0,9.412687232,H1a
mp-980669,TmLuCo2,TmLuCo2,86.333,115.45,45.2,0.27712,86.333,115.35,45.153,0.27732,86.333,45.176,115.4,0.27722,cubic,0,10.9021525,H1a
mp-3161,LiAlSi,LiAlSi,63.333,128.68,55.4,0.16137,63.333,128.03,55.037,0.16309,63.333,55.219,128.35,0.16223,cubic,0.1426,1.966694453,H5
mp-18968,Li2FeSiO4,Li2FeSiO4,91.778,116.63,45.267,0.28821,84.869,111.65,43.59,0.28073,88.323,44.428,114.15,0.28461,orthorhombic,3.282,3.129272667,H2
mp-1326,Nb3Sn,Nb3Sn,164,62.075,21.6,0.43692,164,60.908,21.176,0.4381,164,21.388,61.492,0.43751,cubic,0,8.694218122,H1a
mp-31297,ScInPt,ScInPt,113.89,105.34,39.133,0.34585,104.65,95.293,35.34,0.34824,109.27,37.236,100.31,0.347,hexagonal,0,9.925070008,H4
mp-7361,Sr(CoGe)2,Sr(CoGe)2,78,130.04,53.2,0.22214,70.56,114.99,46.805,0.22839,74.28,50.003,122.52,0.2251,tetragonal,0,6.519288707,H4
mp-503,ThS,ThS,116.33,140.74,54.2,0.29836,116.33,45.328,15.793,0.43506,116.33,34.996,95.421,0.36329,cubic,0,9.376055608,H1a
mp-17129,Sr3(AlN2)2,Sr3(AlN2)2,86.889,120.61,47.533,0.26866,85.281,110.22,42.899,0.2846,86.085,45.216,115.44,0.2765,orthorhombic,1.904,4.289649945,H2
mp-11765,Ti5Se4,Ti5Se4,84.444,121.2,48.067,0.26078,84.194,111.78,43.708,0.27872,84.319,45.888,116.52,0.26968,tetragonal,0,5.571714701,H4
mp-985278,AcF3,AcF3,121.67,124.44,46.8,0.32953,118.79,58.905,20.78,0.41735,120.23,33.79,92.687,0.37151,tetragonal,6.2076,8.522775349,H4
mp-1623,ErS,ErS,107,130.68,50.4,0.29645,107,70.772,25.462,0.38976,107,37.931,101.77,0.34148,cubic,0,8.11447281,H1a
mp-672340,LiIn2Ru,LiIn2Ru,101.67,123.97,47.8,0.29677,101.67,85.814,31.565,0.35932,101.67,39.682,105.34,0.32731,cubic,0,8.054667257,H1a
mp-1018643,YBPd3,YBPd3,191.33,63.007,21.8,0.44512,191.33,18.751,6.3192,0.48367,191.33,14.06,41.17,0.46414,cubic,0,8.599435523,H1a
mp-9945,CoTe2,CoTe2,84.444,117.79,46.467,0.26751,84.432,114.78,45.066,0.27343,84.438,45.766,116.29,0.27047,orthorhombic,0,7.92855369,H4
mp-998,Al2Cu,Al2Cu,99.444,112.9,43.067,0.31078,99.444,100.3,37.653,0.3319,99.444,40.36,106.65,0.32125,tetragonal,0,4.382044573,H4
mp-31209,Ca(BeGe)2,Ca(BeGe)2,63.889,131.68,56.933,0.15648,63.595,123.95,52.74,0.17514,63.742,54.837,127.85,0.16571,tetragonal,0,4.207407451,H4
mp-4711,Li2CuO2,Li2CuO2,92.444,125.94,49.467,0.27295,85.251,100.8,38.683,0.30293,88.848,44.075,113.46,0.28716,orthorhombic,0,3.631182628,H4
mp-1025449,TbInPt2,TbInPt2,113.56,15.171,5.1333,0.47773,113.32,166.7,66.422,0.25483,113.44,35.778,97.122,0.35731,hexagonal,0,13.18164523,H4
mp-25542,LiMnO2,LiMnO2,106.67,135.97,52.8,0.28755,96.198,72.832,26.507,0.37382,101.43,39.654,105.25,0.32707,monoclinic,1.7503,3.729263301,H4
mp-983565,CuBSe2,CuBSe2,76.778,127.4,52.067,0.22344,76.512,114.09,45.581,0.25148,76.645,48.824,120.82,0.23728,tetragonal,1.487,5.591577963,H1a
mp-1025229,TiGa5Co,TiGa5Co,87.889,123.39,48.733,0.26601,79.664,109.7,43.171,0.2705,83.776,45.952,116.55,0.26814,tetragonal,0,6.940854221,H4
mp-4510,DyNiSb,DyNiSb,61.667,130.37,56.8,0.14764,61.667,127.01,54.902,0.15672,61.667,55.851,128.7,0.15216,cubic,0.3669,8.904165433,H5
mp-22044,Sm2Ge2Ru,Sm2Ge2Ru,88.444,117.32,45.867,0.27892,87.249,110.54,42.882,0.28885,87.847,44.374,113.94,0.28383,monoclinic,0,8.261044915,H4
mp-3286,Ce(AlZn)2,Ce(AlZn)2,80.778,126.54,51.067,0.23892,80.504,109.95,43.205,0.27238,80.641,47.136,118.35,0.2554,tetragonal,0,5.588147919,H4
mp-14070,RbAlO2,RbAlO2,92.333,130.92,51.8,0.26369,92.333,89.982,33.636,0.33758,92.333,42.718,111.03,0.29958,cubic,3.3765,3.59138436,H2
mp-9942,Ti2FeS4,Ti2FeS4,61.778,131.95,57.667,0.14403,60.733,125.62,54.366,0.15527,61.255,56.017,128.79,0.14958,monoclinic,0,4.08165021,H4
mp-21342,V3Sn,V3Sn,162.33,65.888,23,0.43235,162.33,58.26,20.226,0.44019,162.33,21.613,62.084,0.43626,cubic,0,7.368095967,H1a
mp-1022728,Cu3O2,Cu3O2,129.67,128.66,48.2,0.33463,90.95,69.04,25.133,0.37348,110.31,36.667,99.028,0.35038,tetragonal,0,6.147635986,H4
mp-8880,AlP,AlP,82.778,118.7,47.067,0.261,82.768,115.18,45.418,0.26806,82.773,46.242,116.95,0.26452,hexagonal,2.0228,2.306796588,H1b
mp-900,RhSe,RhSe,137.22,91.996,33.133,0.38826,134.25,70.263,24.867,0.41277,135.73,29,81.217,0.40027,hexagonal,0,8.658113692,H4
mp-2358,SmAl2,SmAl2,74,123.22,50.4,0.22247,74,120.93,49.254,0.22763,74,49.827,122.08,0.22504,cubic,0,5.345095455,H1a
mp-30066,Sb7Pd20,Sb7Pd20,139.89,81.202,28.933,0.40325,139.59,75.434,26.751,0.40993,139.74,27.842,78.324,0.40658,trigonal,0,10.75756589,H2
mp-971683,C3N4,C3N4,128.67,239.41,100.6,0.18989,7.9127,10.746,4.2187,0.27365,68.29,52.409,125.2,0.19444,trigonal,2.1936,2.336940873,H2
mp-1961,TiAg,TiAg,102.33,118.2,45.2,0.3075,98.455,92.563,34.453,0.34331,100.39,39.827,105.53,0.32481,tetragonal,0,7.428254122,H4
mp-17695,Sc5Sn3,Sc5Sn3,72.889,123.54,50.733,0.21752,71.468,122.45,50.414,0.21444,72.179,50.574,122.99,0.216,hexagonal,0,5.104693989,H4
mp-3034,MgAl2Cu,MgAl2Cu,78,123.18,49.8,0.23679,77.92,116.1,46.379,0.25166,77.96,48.09,119.66,0.24418,orthorhombic,0,3.553152023,H4
mp-30410,Mn2Au5,Mn2Au5,127,100.18,36.6,0.36853,126.58,74.251,26.476,0.40223,126.79,31.538,87.37,0.38515,monoclinic,0,15.07567175,H4
mp-6459,CaMg(CO3)2,CaMg(CO3)2,93.556,124.13,48.533,0.27886,85.794,100.56,38.54,0.30464,89.675,43.537,112.42,0.29106,trigonal,5.0311,2.760182613,H2
mp-1159,Zr2Fe,Zr2Fe,124.44,96.167,35.067,0.3712,123.78,82.072,29.533,0.38949,124.11,32.3,89.165,0.38026,tetragonal,0,7.001339737,H4
mp-20064,DyGa2,DyGa2,70.667,128.35,53.6,0.19729,64.811,122.17,51.511,0.18584,67.739,52.556,125.27,0.19178,hexagonal,0,7.894283977,H4
mp-997094,SrAuO2,SrAuO2,98.333,113.96,43.6,0.30685,96.372,100.76,38.003,0.32574,97.353,40.801,107.4,0.31613,monoclinic,1.6597,8.016909278,H4
mp-510402,GdS,GdS,89.667,128.19,50.8,0.26173,89.667,95.725,36.203,0.32207,89.667,43.501,112.34,0.29119,cubic,0,7.203646573,H1a
mp-1956,TmGa2,TmGa2,73.444,124.77,51.267,0.21686,72.527,119.93,48.977,0.22439,72.986,50.122,122.36,0.22059,orthorhombic,0,8.608977321,H4
mp-30797,Nb5Te4,Nb5Te4,90.111,118.95,46.467,0.27999,89.698,105.23,40.333,0.30448,89.904,43.4,112.15,0.29209,tetragonal,0,8.057077707,H4
mp-20400,Ce(GePt)2,Ce(GePt)2,112.67,108.26,40.4,0.33985,109.67,87.651,32.064,0.3668,111.17,36.232,98.045,0.35301,tetragonal,0,11.61385643,H4
mp-999200,Si,Si,82.111,119.82,47.667,0.2568,81.663,114.27,45.104,0.26678,81.887,46.385,117.05,0.26176,tetragonal,0.4517,2.158413626,H1a
mp-3104,BaZrN2,BaZrN2,101.67,117.64,45,0.30714,97.871,93.371,34.814,0.341,99.769,39.907,105.64,0.32353,tetragonal,1.0042,5.679937445,H1a
mp-2451,YAl3,YAl3,73.222,126.4,52.133,0.21229,71.149,118.91,48.678,0.22144,72.186,50.406,122.67,0.21678,trigonal,0,3.599968014,H2
mp-2209,CeGa2,CeGa2,67.444,133.9,57.267,0.16911,59.466,120.43,51.799,0.16247,63.455,54.533,127.17,0.16599,hexagonal,0,6.913058,H4
mp-5671,Sr(CoP)2,Sr(CoP)2,85.778,120.65,47.667,0.26557,82.989,110.07,43.033,0.27894,84.383,45.35,115.38,0.27211,tetragonal,0,5.330445087,H4
mp-1019357,ThAsSe,ThAsSe,92.778,110.99,42.667,0.30062,92.754,109.09,41.831,0.30397,92.766,42.249,110.04,0.3023,tetragonal,0,8.746497781,H4
mp-20122,DyGe,DyGe,63,135.24,59.2,0.14222,62.685,119.24,50.398,0.18297,62.843,54.799,127.37,0.16219,orthorhombic,0,8.508845506,H4
mp-8583,Ba(PRh)2,Ba(PRh)2,90.222,120.86,47.333,0.27673,86.748,104.46,40.199,0.2993,88.485,43.766,112.72,0.28769,tetragonal,0,6.63659813,H4
mp-569927,ErZn5,ErZn5,79.111,119.5,47.867,0.24825,79.013,117.52,46.928,0.25211,79.062,47.398,118.51,0.25017,hexagonal,0,8.043474638,H4
mp-1025409,TmPt,TmPt,117.11,101.57,37.467,0.35545,110.79,89.85,32.916,0.36484,113.95,35.191,95.721,0.36,orthorhombic,0,14.05228415,H4
mp-8557,BaPaO3,BaPaO3,96.667,116.42,44.8,0.29928,96.667,98.068,36.842,0.33092,96.667,40.821,107.35,0.31491,cubic,0,7.532229773,H1a
mp-4524,ZnGeP2,ZnGeP2,75,125.13,51.2,0.22194,75,116.3,46.839,0.24155,75,49.019,120.75,0.23167,tetragonal,1.2026,4.043866532,H1a
mp-973896,Ni3I,Ni3I,125.67,90.016,32.6,0.38062,125.33,85.15,30.701,0.38676,125.5,31.651,87.588,0.38368,tetragonal,0,9.212120695,H4
mp-864977,Dy2AgOs,Dy2AgOs,104.33,103.09,38.6,0.33532,104.33,101.19,37.802,0.33836,104.33,38.201,102.14,0.33684,cubic,0,12.06120123,H1a
mp-568865,ZrTe,ZrTe,88,124.41,49.2,0.26437,86.521,101.82,39.045,0.30386,87.261,44.123,113.28,0.28365,orthorhombic,0,7.315700653,H4
mp-3660,LiB3O5,LiB3O5,83.667,132.1,53.4,0.23686,80.652,100.08,38.695,0.29319,82.159,46.048,116.4,0.26388,orthorhombic,6.3532,2.38412825,H2
mp-2918,YCuO2,YCuO2,117.56,114.34,42.733,0.33789,111.17,75.514,27.226,0.38679,114.36,34.98,95.23,0.36122,hexagonal,2.6529,4.865677774,H1b
mp-752685,ZrBiO4,ZrBiO4,116,137.08,52.6,0.30305,77.584,76.874,28.795,0.33486,96.792,40.697,107.08,0.31561,triclinic,1.1022,7.214905242,H5
mp-1138,LiF,LiF,70.333,124.77,51.8,0.20434,70.333,121.63,50.187,0.21178,70.333,50.993,123.2,0.20805,cubic,8.7195,2.530430196,H2
mp-12565,MnAu4,MnAu4,128.56,93.06,33.733,0.37935,128.55,77.36,27.635,0.3997,128.55,30.684,85.268,0.38945,tetragonal,0,16.06888246,H4
mp-30460,YNiBi,YNiBi,77.333,120.96,48.8,0.23932,77.333,117.39,47.068,0.24701,77.333,47.934,119.18,0.24315,cubic,0.257,8.634149415,H5
mp-13172,YMgCu4,YMgCu4,92,112.06,43.2,0.29699,92,108.13,41.457,0.30411,92,42.329,110.1,0.30054,cubic,0,6.473157221,H1a
mp-571420,Ba(NiP2)2,Ba(NiP2)2,100.11,116.65,44.667,0.3058,100.01,92.587,34.401,0.3457,100.06,39.534,104.8,0.32544,orthorhombic,0,4.990560227,H4
mp-865847,Lu2CuPt,Lu2CuPt,101,105.07,39.6,0.32662,101,103.24,38.824,0.32963,101,39.212,104.16,0.32812,cubic,0,12.84834573,H1a
mp-2606,BaPd5,BaPd5,100.44,107.49,40.667,0.32164,97.569,103.44,39.086,0.3233,99.007,39.876,105.47,0.32245,hexagonal,0,9.234611454,H4
mp-841,Li2O2,Li2O2,72,127.29,52.8,0.20536,71.325,117.3,47.841,0.22591,71.663,50.321,122.33,0.2155,hexagonal,2.0228,2.258068174,H1b
mp-11412,ScGa2,ScGa2,80.889,120.5,48.133,0.25172,79.214,114.34,45.396,0.25942,80.052,46.765,117.43,0.25552,orthorhombic,0,5.617118533,H4
mp-36775,SrAl2O4,SrAl2O4,89.556,112.83,43.733,0.29001,87.867,111.25,43.154,0.28898,88.711,43.444,112.04,0.2895,hexagonal,3.9619,3.458783085,H1b
mp-1029737,Ca4VN4,Ca4VN4,87.556,118.59,46.533,0.27426,86.852,107.29,41.453,0.29412,87.204,43.993,112.98,0.28407,triclinic,0,3.158088906,H4
mp-747,BaPt2,BaPt2,103.33,102.98,38.6,0.33391,103.33,101.86,38.13,0.33571,103.33,38.365,102.42,0.33481,cubic,0,13.27217854,H1a
mp-1025248,TlPd5Se,TlPd5Se,120.89,97.585,35.733,0.36546,117.88,85.129,30.852,0.37964,119.38,33.293,91.383,0.37242,tetragonal,0,11.13972898,H4
mp-31452,ZrNiBi,ZrNiBi,104.67,105.02,39.4,0.33277,104.67,97.843,36.395,0.3442,104.67,37.897,101.45,0.33846,cubic,0,9.570541725,H1a
mp-568469,Ca4TiN4,Ca4TiN4,91.222,118,45.933,0.28442,87.694,104.83,40.294,0.30077,89.458,43.114,111.44,0.29238,triclinic,1.5642,3.061878324,H5
mp-20202,MgSn4Ru,MgSn4Ru,74.111,122.19,49.867,0.2252,74.109,119.22,48.392,0.23187,74.11,49.129,120.71,0.22853,tetragonal,0,7.475070748,H4
mp-2685,HgPd,HgPd,115,99.269,36.6,0.35613,115,89.34,32.593,0.37052,115,34.597,94.331,0.36329,tetragonal,0,14.01389079,H4
mp-601,PrP,PrP,74.333,126.11,51.8,0.21725,74.333,114.92,46.25,0.24234,74.333,49.025,120.57,0.22967,cubic,0,5.422783944,H1a
mp-971661,Si,Si,79.333,117.75,47,0.25263,79.333,117.49,46.875,0.25318,79.333,46.938,117.62,0.25291,cubic,1.3398,2.081284666,H5
mp-644424,Sr2CoO3,Sr2CoO3,79.222,118.42,47.333,0.25088,78.865,117.07,46.732,0.25259,79.043,47.033,117.74,0.25173,monoclinic,0.9403,3.459375971,H4
mp-866166,Y2PdRu,Y2PdRu,102.33,102.87,38.6,0.33247,102.33,102.83,38.586,0.33252,102.33,38.593,102.85,0.33249,cubic,0,7.689563043,H1a
mp-866222,AcSi3,AcSi3,81.111,120,47.867,0.25343,79.838,113.63,44.992,0.26279,80.474,46.429,116.82,0.25806,hexagonal,0,6.045067807,H4
mp-1607,YbCu5,YbCu5,88.667,113.71,44.2,0.28627,87.437,110.55,42.873,0.28928,88.052,43.536,112.13,0.28776,hexagonal,0,9.333348732,H4
mp-862264,Sc2ZnTc,Sc2ZnTc,105,105.53,39.6,0.33249,105,96.445,35.802,0.34691,105,37.701,101.01,0.33966,cubic,0,5.925215477,H1a
mp-4897,ScSnPd2,ScSnPd2,124.33,107.89,39.8,0.35538,124.33,66.628,23.616,0.41069,124.33,31.708,87.671,0.38248,cubic,0,8.715681829,H1a
mp-29352,Ba2PdO3,Ba2PdO3,87.556,117.29,45.933,0.27673,84.862,109.16,42.454,0.28561,86.209,44.194,113.23,0.28109,orthorhombic,0.0294,6.515388813,H2
mp-21067,ScInCu2,ScInCu2,94.333,126.18,49.4,0.27708,94.333,88.951,33.12,0.34284,94.333,41.26,108.03,0.30913,cubic,0,7.198629576,H1a
mp-976870,NaNi3,NaNi3,107,112.36,42.4,0.32499,106.55,86.68,31.765,0.36441,106.77,37.082,99.705,0.34437,tetragonal,0,6.483032581,H4
mp-7870,GdO,GdO,102.33,104.28,39.2,0.33016,102.33,100.99,37.81,0.33552,102.33,38.505,102.64,0.33283,cubic,0,7.339499099,H1a
mp-13138,Cu3Sn,Cu3Sn,106.89,104.15,38.933,0.3376,105.43,95.851,35.54,0.34848,106.16,37.237,100.02,0.34298,hexagonal,0,8.88481371,H4
mp-39681,NaTi2BiO6,NaTi2BiO6,107.11,131.3,50.667,0.2957,98.836,71.356,25.86,0.37967,102.97,38.263,102.14,0.33468,trigonal,2.751,5.792353073,H2
mp-704645,CuO,CuO,153.44,96.716,34.667,0.39495,138.17,46.672,16.164,0.4437,145.81,25.415,72.059,0.41763,monoclinic,0,5.938478414,H4
mp-973156,ScAsO3,ScAsO3,105.67,113.59,43,0.32083,105.67,86.403,31.679,0.36372,105.67,37.34,100.21,0.34193,cubic,0,4.55076208,H1a
mp-1009657,CaN2,CaN2,94.333,127.04,49.8,0.27554,86.723,92.868,35.137,0.32152,90.528,42.468,110.18,0.29716,tetragonal,0,2.887754508,H4
mp-2894,ScSnAu,ScSnAu,90,114.39,44.4,0.28817,90,106.58,40.909,0.30263,90,42.655,110.51,0.29536,cubic,0.1706,8.635190018,H5
mp-2119,TbC2,TbC2,109.56,154.21,60.933,0.2654,102.97,38.27,13.306,0.43806,106.26,37.12,99.745,0.34356,tetragonal,0,7.134075954,H4
mp-973432,LuScRh2,LuScRh2,106.67,99.496,37,0.34454,106.67,99.397,36.959,0.34469,106.67,36.979,99.446,0.34462,cubic,0,9.852044963,H1a
mp-9487,USiAu,USiAu,109.67,108.9,40.8,0.33451,94.967,95.628,35.892,0.33217,102.32,38.346,102.26,0.33342,hexagonal,0,12.30335287,H4
mp-24152,HoH2,HoH2,88,126.96,50.4,0.25954,88,95.52,36.207,0.31909,88,43.303,111.6,0.28863,cubic,0,8.066010912,H1a
mp-862887,LiSc2Os,LiSc2Os,97,105.96,40.2,0.31793,97,105.55,40.024,0.31863,97,40.112,105.76,0.31828,cubic,0,6.819598009,H1a
mp-775127,Li4Fe3O8,Li4Fe3O8,95.889,133.26,52.533,0.26837,92.024,80.581,29.755,0.35406,93.956,41.144,107.71,0.30894,trigonal,0,3.55138847,H2
mp-2083,Sn2Ir,Sn2Ir,110,97.377,36,0.35246,110,96.498,35.64,0.35379,110,35.82,96.938,0.35312,cubic,0,10.68575861,H1a
mp-4842,Al2ZnS4,Al2ZnS4,84.333,122.73,48.8,0.25746,84.333,104.49,40.388,0.29351,84.333,44.594,113.74,0.27523,cubic,2.6027,3.204055473,H2
mp-5862,CrCuS2,CrCuS2,96.222,110.3,42.133,0.30895,92.242,104.55,39.873,0.31109,94.232,41.003,107.43,0.30999,trigonal,0.267,4.535384795,H2
mp-1021667,IClO3,IClO3,149.67,71.044,25,0.42089,149.67,66.542,23.333,0.4259,149.67,24.167,68.797,0.42339,cubic,0,4.915834547,H1a
mp-990,HoAu2,HoAu2,104.33,108.75,41,0.32627,101.72,94.246,35.021,0.34558,103.03,38.01,101.54,0.33573,tetragonal,0,14.64773748,H4
mp-27468,U2BiN2,U2BiN2,85.556,127.08,50.733,0.25244,76.825,103.98,40.793,0.27443,81.19,45.763,115.58,0.26275,tetragonal,0,12.36283297,H4
mp-971891,Zn2PdAu,Zn2PdAu,137.67,109.4,40,0.36755,137.67,43.327,14.966,0.44755,137.67,27.483,77.304,0.40641,cubic,0,11.73216997,H1a
mp-1025,ThAu2,ThAu2,124.11,93.129,33.867,0.37494,112.01,89.159,32.603,0.36733,118.06,33.235,91.151,0.37132,hexagonal,0,14.9838869,H4
mp-981385,Sc3P,Sc3P,67.111,75.741,28.867,0.3119,66.32,163.36,74.975,0.089454,66.715,51.921,123.68,0.19103,tetragonal,0,3.514314367,H4
mp-977462,ZrCdAu2,ZrCdAu2,149,106.09,38.4,0.38133,149,29.714,10.129,0.46676,149,24.265,69.046,0.42277,cubic,0,12.64002052,H1a
mp-559276,AlBPbO4,AlBPbO4,84.556,139.09,56.733,0.22584,71.785,94.841,37.053,0.2798,78.17,46.893,117.24,0.25004,orthorhombic,3.0563,6.104435222,H2
mp-30312,Ca2SiIr2,Ca2SiIr2,101.33,109.78,41.6,0.31944,92.564,101,38.312,0.31814,96.949,39.956,105.39,0.31882,monoclinic,0,7.931424793,H4
mp-7937,NaNbS2,NaNbS2,75.889,120.83,48.933,0.23463,74.994,116.8,47.079,0.24043,75.442,48.006,118.82,0.23751,hexagonal,0.6611,4.103609411,H1a
mp-21022,Nd3InN,Nd3InN,67.333,123.68,51.8,0.19385,67.333,122.92,51.397,0.19575,67.333,51.598,123.3,0.1948,cubic,0,7.281087937,H1a
mp-569848,LuInPt,LuInPt,108,103.47,38.6,0.34032,105.06,94.364,34.942,0.3503,106.53,36.771,98.93,0.34522,hexagonal,0,12.64641482,H4
mp-1025232,V2CrSe4,V2CrSe4,73.444,122.39,50.067,0.22226,73.321,117.52,47.662,0.23286,73.383,48.865,119.97,0.22753,monoclinic,0,6.12205028,H4