Material_ID,Formula,pretty_formula,KV ,EV ,GV ,PV ,KR ,ER ,GR ,PR ,bulk,shear,young,poisson,csyst,gap,density,y_cla
mp-17275,SrY2O4,SrY2O4,114.78,160.77,63.467,0.26655,109.99,155.58,61.532,0.26425,112.38,62.499,158.18,0.26542,orthorhombic,4.021,5.191752443,H2
mp-19102,Sr2FeO4,Sr2FeO4,111.67,159.08,63,0.26256,111.46,158.25,62.628,0.26338,111.57,62.814,158.67,0.26297,tetragonal,0,5.106824888,H4
mp-3432,ScNiSb,ScNiSb,103.33,163.65,66.2,0.23604,103.33,163.43,66.092,0.2364,103.33,66.146,163.54,0.23622,cubic,0.3161,6.56142616,H5
mp-20952,TiNiSb,TiNiSb,128.33,148.04,56.6,0.30774,128.33,148.03,56.596,0.30776,128.33,56.598,148.03,0.30775,cubic,0,7.238841663,H1a
mp-11280,TiBe12,TiBe12,122.11,170.49,67.267,0.2673,122.11,132.79,50.347,0.31875,122.11,58.807,152.02,0.29251,hexagonal,0,2.282416043,H4
mp-1025044,AlNi2,AlNi2,185.11,204.41,77.667,0.31596,184.97,0.29518,0.098411,0.49973,185.04,38.883,109.01,0.40181,trigonal,0,6.948461253,H2
mp-1001788,ZrB6,ZrB6,179.33,207.57,79.4,0.30709,179.33,4.9678,1.661,0.49538,179.33,40.531,113.07,0.39491,cubic,0,3.876498043,H1a
mp-973884,Ni3Hg,Ni3Hg,166,140.76,51.8,0.35868,165.99,103.63,37.117,0.39595,166,44.459,122.44,0.37706,cubic,0,11.90928963,H1a
mp-10550,SrMg2N2,SrMg2N2,94.111,171.86,71.867,0.19565,94.097,165.29,68.461,0.20723,94.104,70.164,168.59,0.20141,trigonal,1.6877,3.706633067,H2
mp-2294,Al3Ir,Al3Ir,151.22,156.94,59.133,0.32703,150.83,107.59,38.951,0.38111,151.02,49.042,132.76,0.35349,hexagonal,0,7.266572998,H4
mp-5260,Ho(GeRu)2,Ho(GeRu)2,122.22,154.54,59.933,0.28926,121.59,149.58,57.753,0.29498,121.91,58.843,152.06,0.29211,tetragonal,0,9.487253234,H4
mp-1823,Ti3Al,Ti3Al,115.56,157.64,61.933,0.27264,115.38,154.36,60.435,0.27702,115.47,61.184,156,0.27483,hexagonal,0,4.248868625,H4
mp-17856,Al7CoCu2,Al7CoCu2,110,160.39,63.8,0.25698,109.98,158.31,62.817,0.26009,109.99,63.309,159.35,0.25853,tetragonal,0,4.243438697,H4
mp-1029422,NbZn2N3,NbZn2N3,139.22,140.94,52.933,0.33128,138.83,140.21,52.642,0.33168,139.03,52.788,140.57,0.33148,orthorhombic,1.9319,5.634994134,H2
mp-30581,Hf2Cu,Hf2Cu,123.67,154.5,59.8,0.29178,123.66,146.66,56.306,0.30233,123.66,58.053,150.59,0.29704,tetragonal,0,12.40423989,H4
mp-31467,Ga3Pd7,Ga3Pd7,149.89,135.8,50.333,0.349,149.06,131.01,48.396,0.35352,149.48,49.365,133.41,0.35125,monoclinic,0,10.44334528,H4
mp-12647,TbNbO4,TbNbO4,140,152.42,57.8,0.31854,130.55,133.23,50.088,0.32991,135.27,53.944,142.84,0.324,monoclinic,3.5286,6.800064872,H2
mp-14116,CuRhO2,CuRhO2,173.44,137.52,50.267,0.36786,154.75,108.72,39.31,0.3829,164.1,44.788,123.16,0.37491,trigonal,0.8306,6.765949668,H2
mp-37514,SrCuO2,SrCuO2,115,165.78,65.8,0.25974,105.75,151.38,60.002,0.26142,110.37,62.901,158.58,0.26054,tetragonal,0,5.599885837,H4
mp-15051,Nd(PdO2)2,Nd(PdO2)2,149.89,146.38,54.733,0.33723,144.49,122.83,45.215,0.35831,147.19,49.974,134.68,0.3475,tetragonal,0,7.711752821,H4
mp-20697,ZrNiSb,ZrNiSb,135,146.67,55.6,0.31893,133.92,139.75,52.693,0.32608,134.46,54.146,143.22,0.32248,orthorhombic,0,8.302104523,H4
mp-865785,YbHfIr2,YbHfIr2,159,135.28,49.8,0.3582,159,117.62,42.717,0.37671,159,46.258,126.51,0.36739,cubic,0,17.00923105,H1a
mp-861667,LiSbRh2,LiSbRh2,163.33,153.66,57.2,0.3432,163.33,91.706,32.603,0.40642,163.33,44.901,123.4,0.37409,cubic,0,9.333449314,H1a
mp-636368,Ga3Fe,Ga3Fe,103.33,167.3,68,0.23016,101.99,158.5,63.861,0.24099,102.66,65.931,162.92,0.23552,tetragonal,0.575,6.809894312,H1a
mp-31184,AlFe2,AlFe2,117.67,154.73,60.4,0.28084,117.67,152.94,59.583,0.28338,117.67,59.992,153.83,0.28211,cubic,0,6.117735277,H1a
mp-17383,Ni2Ge,Ni2Ge,170.67,123.08,44.6,0.37981,164.67,117.42,42.508,0.38116,167.67,43.554,120.25,0.38047,orthorhombic,0,8.84633797,H4
mp-19317,Yb(FeO2)2,Yb(FeO2)2,147.44,139.75,52.067,0.34203,144.52,130.67,48.421,0.3493,145.98,50.244,135.22,0.34562,trigonal,0,6.497882814,H2
mp-21113,Y(FeGe)2,Y(FeGe)2,126.22,152.99,58.933,0.29799,126.04,143.77,54.88,0.30988,126.13,56.907,148.4,0.3039,tetragonal,0,7.107959845,H4
mp-30,Cu,Cu,144.67,152.09,57.4,0.32479,144.67,119.57,43.885,0.36225,144.67,50.643,136.05,0.34326,cubic,0,8.888274633,H1a
mp-10675,Ti3AlN,Ti3AlN,163.33,130.16,47.6,0.36719,163.33,116.13,42.029,0.3815,163.33,44.814,123.18,0.37431,cubic,0,4.351485083,H1a
mp-12972,Zr6Sb2Pt,Zr6Sb2Pt,119.78,154.83,60.267,0.28456,118.94,150.42,58.339,0.28922,119.36,59.303,152.63,0.28688,hexagonal,0,8.182856818,H4
mp-505110,FeCuO2,FeCuO2,154.22,159.18,59.933,0.32798,133.65,113.32,41.703,0.35869,143.94,50.818,136.4,0.34206,hexagonal,0,5.351412452,H4
mp-2747,TbPd3,TbPd3,126,151.3,58.2,0.29986,126,145.18,55.497,0.30797,126,56.849,148.25,0.3039,cubic,0,11.19848828,H1a
mp-13068,Lu2O3,Lu2O3,161.78,186.88,71.467,0.30747,154.92,60.331,21.02,0.43509,158.35,46.243,126.42,0.36694,trigonal,4.0883,10.39274497,H2
mp-865992,YbSnRh2,YbSnRh2,128,147.53,56.4,0.3079,128,146.19,55.813,0.30965,128,56.107,146.86,0.30877,cubic,0,11.84446755,H1a
mp-1649,Fe3Pt,Fe3Pt,180.33,137.31,50,0.3731,180.33,83.626,29.39,0.42271,180.33,39.695,110.94,0.39746,cubic,0,11.4106182,H1a
mvc-15603,MnAlO3,MnAlO3,168,125.45,45.6,0.37555,168,113.78,41.012,0.38713,168,43.306,119.64,0.38131,cubic,0,4.060985177,H1a
mp-1023125,MgCuO2,MgCuO2,141,205.63,81.8,0.25693,58.353,120.65,52.21,0.15541,99.676,67.005,164.22,0.22542,tetragonal,0,5.038794717,H4
mp-12781,ScAl2Ni,ScAl2Ni,107,167.11,67.4,0.2397,106.36,153.06,60.732,0.26016,106.68,64.066,160.14,0.24982,orthorhombic,0,4.089561211,H4
mp-10214,Y2GeRh3,Y2GeRh3,145.22,147.76,55.533,0.33042,144.78,122.72,45.161,0.35873,145,50.347,135.37,0.3444,trigonal,0,8.519300621,H2
mp-7822,Sc5Si3,Sc5Si3,90.111,171.07,72.267,0.1836,87.71,168.74,71.537,0.17937,88.911,71.902,169.9,0.18151,hexagonal,0,3.252082867,H4
mp-19435,CoMoO4,CoMoO4,141.44,151.84,57.467,0.32109,138.88,125.1,46.337,0.34988,140.16,51.902,138.6,0.3352,monoclinic,0,5.900878185,H4
mp-8352,SiO2,SiO2,133.67,157.48,60.4,0.30364,133.67,127.87,47.695,0.34056,133.67,54.047,142.88,0.32184,cubic,5.4671,1.921905463,H2
mp-754495,NbNO,NbNO,142,145.19,54.6,0.32959,135.69,133.55,49.984,0.33596,138.84,52.292,139.38,0.33269,monoclinic,1.6875,4.8602927,H4
mp-542903,ZrPbO3,ZrPbO3,116,157.44,61.8,0.27379,110.72,154.15,60.788,0.26795,113.36,61.294,155.8,0.27093,orthorhombic,2.7752,7.747064329,H2
mp-22461,Fe3Sn,Fe3Sn,119,170.94,67.8,0.26059,119,132.83,50.543,0.31397,119,59.172,152.28,0.28673,cubic,0,8.536924818,H1a
mp-5869,Ca2CuO3,Ca2CuO3,118,168.59,66.8,0.26188,108.88,142.8,55.721,0.28141,113.44,61.26,155.75,0.27118,orthorhombic,0,4.144747113,H4
mp-504886,Gd2O3,Gd2O3,130.67,146.08,55.6,0.31367,130.67,143.38,54.427,0.31712,130.67,55.014,144.73,0.3154,cubic,2.9411,7.514705303,H2
mp-862367,Sc2NiRu,Sc2NiRu,124.33,148.78,57.2,0.30056,124.33,148.78,57.199,0.30056,124.33,57.199,148.78,0.30056,cubic,0,6.356180698,H1a
mp-15113,Na2Si3O7,Na2Si3O7,106.67,175.53,71.6,0.22574,93.302,151.76,61.745,0.22891,99.984,66.673,163.64,0.22722,monoclinic,4.9429,3.182597228,H2
mp-20557,YSiNi,YSiNi,113.11,161.25,63.867,0.2624,111.41,151.43,59.454,0.27347,112.26,61.66,156.35,0.26787,orthorhombic,0,5.676460212,H4
mp-753156,La2Th2O7,La2Th2O7,125,155.17,60,0.2931,123.04,142.55,54.539,0.3069,124.02,57.269,148.89,0.29991,tetragonal,2.9437,7.764584819,H4
mp-555483,SiO2,SiO2,133.22,152.25,58.133,0.30952,133.06,133.35,50.021,0.33297,133.14,54.077,142.89,0.32113,orthorhombic,5.5941,2.37106926,H2
mp-864940,Mg2PtRh,Mg2PtRh,119,159.35,62.4,0.27682,119,144.58,55.714,0.29751,119,59.057,152.02,0.28708,cubic,0,9.286124751,H1a
mp-865796,LuCdRh2,LuCdRh2,143.33,144.4,54.2,0.33209,143.33,127.54,47.179,0.35169,143.33,50.69,136.03,0.34182,cubic,0,11.52543678,H1a
mp-1566,SmFe5,SmFe5,111,159.36,63.2,0.26073,107.26,156.45,62.238,0.2569,109.13,62.719,157.91,0.25884,hexagonal,0,8.063458591,H4
mp-510281,FeCuO2,FeCuO2,153.89,158.67,59.733,0.32815,132.43,112.91,41.575,0.3579,143.16,50.654,135.93,0.34175,trigonal,0.8467,5.361834384,H2
mp-30875,Ti2Sn,Ti2Sn,115.56,159.36,62.733,0.27015,115.47,148.41,57.712,0.28578,115.51,60.223,153.92,0.27792,hexagonal,0.0452,6.451610675,H1a
mp-755769,ZrO2,ZrO2,159.78,139.43,51.467,0.35456,158.76,109.85,39.667,0.38468,159.27,45.567,124.8,0.36941,monoclinic,4.2052,4.431904778,H2
mp-1008631,VCoTe,VCoTe,119.67,151.13,58.6,0.28951,119.67,151.12,58.596,0.28952,119.67,58.598,151.13,0.28952,cubic,0,7.819808764,H1a
mvc-14006,AlMoO3,AlMoO3,175.56,160.95,59.733,0.3472,165.03,70.353,24.617,0.42895,170.29,42.175,116.88,0.38561,hexagonal,0,4.962853093,H4
mp-13641,TiCdO3,TiCdO3,153.22,143.85,53.533,0.34353,146.74,117.86,43.135,0.36614,149.98,48.334,130.94,0.3545,trigonal,2.9256,5.633653452,H2
mp-11476,HoIr,HoIr,139.67,138.78,52,0.33439,139.67,136.98,51.242,0.33654,139.67,51.621,137.88,0.33547,cubic,0,14.91165269,H1a
mp-27793,Nb2Se,Nb2Se,122.56,151.48,58.533,0.29399,122.16,147.02,56.569,0.29943,122.36,57.551,149.25,0.2967,monoclinic,0,7.711559573,H4
mp-32927,Tb2O3,Tb2O3,129.44,145.6,55.467,0.31253,129.44,143.6,54.595,0.31511,129.44,55.031,144.6,0.31382,cubic,0,7.78693604,H1a
mp-776165,AgAuO3,AgAuO3,126,147.23,56.4,0.30525,126,145.9,55.813,0.30701,126,56.107,146.57,0.30613,cubic,0.2565,8.569172737,H5
mvc-13455,MoN2,MoN2,181,159.16,58.8,0.35344,154.4,75.625,26.659,0.41836,167.7,42.73,118.15,0.38257,monoclinic,0,5.300060404,H4
mp-11869,HfSnPd,HfSnPd,122.33,151.15,58.4,0.29408,122.33,146.55,56.349,0.30034,122.33,57.375,148.85,0.2972,cubic,0.0976,10.40380954,H5
mp-362,Ni3S2,Ni3S2,127.33,147.89,56.6,0.30643,126.9,143.58,54.742,0.31142,127.12,55.671,145.74,0.30892,trigonal,0,5.961738947,H2
mp-467,Th3N4,Th3N4,156.56,161.34,60.733,0.32824,138.76,101.89,36.979,0.37762,147.66,48.856,132.01,0.35099,trigonal,1.668,10.44819921,H2
mp-27175,InOF,InOF,120.22,163.79,64.333,0.27294,117.89,137.64,52.717,0.30542,119.06,58.525,150.86,0.28882,orthorhombic,1.3307,6.288036463,H2
mp-18922,Mn5O8,Mn5O8,138.44,156.52,59.667,0.31158,134.15,122.23,45.333,0.34815,136.3,52.5,139.58,0.32932,monoclinic,0.629,4.712375351,H4
mp-22309,CoSe2,CoSe2,99.333,164.9,67.4,0.22332,99.333,160.42,65.165,0.23084,99.333,66.283,162.67,0.22707,cubic,0,7.222027318,H1a
mp-1009540,OsC,OsC,255.67,65.859,22.6,0.45707,255.67,42.288,14.36,0.47243,255.67,18.48,54.135,0.46471,cubic,0.1701,13.689522,H5
mp-72,Ti,Ti,113,158.1,62.4,0.26682,112.78,151.08,59.165,0.27673,112.89,60.782,154.6,0.27175,hexagonal,0,4.64683663,H4
mp-1008554,Al3V,Al3V,126.33,158.52,61.4,0.29087,126.33,133.06,50.233,0.32446,126.33,55.816,145.95,0.30745,cubic,0,3.676779817,H1a
mp-12546,TiCu3,TiCu3,139.67,143.98,54.2,0.32819,139.61,130.22,48.425,0.34454,139.64,51.313,137.14,0.33632,orthorhombic,0,7.648117875,H4
mp-9006,Ho2CF2,Ho2CF2,113.89,173.74,69.733,0.24575,96.719,144.39,57.702,0.25118,105.3,63.717,159.07,0.24824,trigonal,1.1355,8.551789517,H2
mp-684768,Sm2O3,Sm2O3,123,148.12,57,0.2993,123,148.06,56.973,0.29938,123,56.987,148.09,0.29934,cubic,0,7.12667692,H1a
mp-1819,SbO2,SbO2,101.33,173.46,71.4,0.2147,93.597,153.66,62.648,0.22638,97.465,67.024,163.58,0.22028,monoclinic,2.0329,6.348046893,H2
mp-218,Sm2O3,Sm2O3,130,145.07,55.2,0.31402,130,141.98,53.861,0.31798,130,54.531,143.52,0.316,cubic,3.8775,6.961765871,H2
mp-1016833,CaRhO3,CaRhO3,142.33,135.72,50.6,0.34108,142.33,134.87,50.245,0.34208,142.33,50.423,135.29,0.34158,cubic,0,5.129345955,H1a
mp-10897,PrAl2Ni3,PrAl2Ni3,115.56,153.3,59.933,0.2789,115.55,151.87,59.279,0.28096,115.55,59.606,152.58,0.27993,hexagonal,0,6.562762938,H4
mp-865944,ThSnRu2,ThSnRu2,135.67,143.96,54.4,0.32315,135.67,135,50.594,0.33415,135.67,52.497,139.5,0.32863,cubic,0,11.64777304,H1a
mp-1158,LuPd3,LuPd3,138,151.69,57.6,0.31679,138,123.75,45.814,0.35055,138,51.707,137.9,0.33346,cubic,0,12.06983904,H1a
mp-568186,YRu2,YRu2,167,119.82,43.4,0.38042,166.32,116.54,42.126,0.38322,166.66,42.763,118.18,0.38181,hexagonal,0,8.939232862,H4
mp-570199,Ti3Pd5,Ti3Pd5,161.78,151.75,56.467,0.34367,161.75,90.017,31.984,0.40725,161.76,44.225,121.59,0.37472,tetragonal,0,8.904611772,H4
mp-1018140,MgNi,MgNi,149.78,145.73,54.467,0.33783,148.71,114.32,41.665,0.37188,149.24,48.066,130.22,0.35458,tetragonal,0,4.89524465,H4
mp-18854,Sr2CrO4,Sr2CrO4,91,167.52,70.2,0.19318,90.728,166.07,69.49,0.19493,90.864,69.845,166.8,0.19405,tetragonal,0,5.119566965,H4
mp-559,YPd3,YPd3,126,149.95,57.6,0.30165,126,141.39,53.844,0.31297,126,55.722,145.69,0.30729,cubic,0,9.55077203,H1a
mp-1341,Te2Rh3,Te2Rh3,148.44,132.59,49.067,0.35113,146.51,130.06,48.096,0.35205,147.48,48.581,131.32,0.35159,orthorhombic,0,10.11971356,H4
mp-862855,PaO2,PaO2,155.78,163.43,61.667,0.32514,139.33,98.026,35.446,0.38274,147.55,48.556,131.27,0.35173,tetragonal,0,8.89756806,H4
mp-30594,Cu4Pd,Cu4Pd,145.78,147.2,55.267,0.33171,145.75,117.12,42.866,0.36608,145.77,49.066,132.35,0.34867,tetragonal,0,9.487853266,H4
mp-10878,Ca(MnAl2)4,Ca(MnAl2)4,89.778,170.56,72.067,0.18336,89.767,163.71,68.439,0.19604,89.772,70.253,167.15,0.18967,tetragonal,0,3.962501329,H4
mp-20744,ZrInNi2,ZrInNi2,139.67,143.03,53.8,0.32931,139.67,129.83,48.263,0.34507,139.67,51.031,136.47,0.33714,cubic,0,8.536059093,H1a
mp-972828,Cu3Si,Cu3Si,139.33,146.75,55.4,0.32446,139.3,126.45,46.877,0.34871,139.32,51.138,136.69,0.33647,tetragonal,0,7.587902812,H4
mp-1001612,LuSi,LuSi,96.222,171.98,71.533,0.20211,94.491,156.09,63.726,0.22468,95.356,67.63,164.1,0.21319,orthorhombic,0,8.337415518,H4
mp-30882,TiZn2,TiZn2,105.67,158.5,63.4,0.25,105.65,157.78,63.056,0.25109,105.66,63.228,158.14,0.25054,hexagonal,0,6.491112306,H4
mp-867317,Cu3Si,Cu3Si,141.78,135.82,50.667,0.34034,140.84,134.52,50.163,0.34081,141.31,50.415,135.17,0.34057,hexagonal,0,7.583022333,H4
mp-1008680,TiGePt,TiGePt,141.67,153.11,58,0.31988,141.67,116.04,42.553,0.36348,141.67,50.277,134.87,0.34132,cubic,0.9376,9.749869626,H5
mp-30883,V4Zn5,V4Zn5,125.56,157.35,60.933,0.29113,124.87,133.81,50.63,0.32141,125.21,55.782,145.71,0.30605,tetragonal,0,6.973256469,H4
mp-3470,MgSiO3,MgSiO3,102.44,169.98,69.467,0.22346,90.258,156.52,64.628,0.21097,96.351,67.047,163.27,0.21758,monoclinic,4.6484,3.084140865,H2
mp-22306,Eu2CuO4,Eu2CuO4,127,156.41,60.4,0.29474,119.22,137.36,52.51,0.30798,123.11,56.455,146.91,0.30112,tetragonal,0,7.655199544,H4
mp-4785,CeAl3Pd2,CeAl3Pd2,116.22,152.55,59.533,0.28123,114.44,151.1,59.025,0.27995,115.33,59.279,151.83,0.28059,hexagonal,0,6.589677596,H4
mp-9964,Ti3TlN,Ti3TlN,150.67,132.62,49,0.35329,150.67,124.24,45.591,0.36257,150.67,47.295,128.45,0.35791,cubic,0,8.032508961,H1a
mp-3433,YMgNi4,YMgNi4,122.67,148.96,57.4,0.2976,122.67,145.32,55.784,0.30255,122.67,56.592,147.15,0.30007,cubic,0,6.793728292,H1a
mp-20622,SiPd3,SiPd3,162,129.56,47.4,0.3667,160.16,112.58,40.705,0.38285,161.08,44.053,121.12,0.37468,orthorhombic,0,9.657922304,H4
mp-631371,TlCuIr,TlCuIr,128.67,143.04,54.4,0.31471,128.67,143.02,54.39,0.31474,128.67,54.395,143.03,0.31473,cubic,0,12.86200483,H1a
mp-2670,Nb3Ga,Nb3Ga,165.33,127.29,46.4,0.37168,165.33,108.5,39.011,0.39063,165.33,42.705,117.96,0.38109,cubic,0,8.28234812,H1a
mp-10887,HfAlCu2,HfAlCu2,134.67,148.01,56.2,0.31682,134.67,129.78,48.447,0.33938,134.67,52.324,138.97,0.328,cubic,0,9.277709661,H1a
mp-9381,Zr6FeTe2,Zr6FeTe2,113.56,153.77,60.333,0.27431,113.49,151.41,59.253,0.27765,113.52,59.793,152.59,0.27598,hexagonal,0,7.415098833,H4
mp-2489,UC,UC,188.33,116.24,41.6,0.39713,188.33,86.514,30.389,0.42344,188.33,35.995,101.52,0.41016,cubic,0,13.80024587,H1a
mp-742,Ti2Cu,Ti2Cu,125.89,156.51,60.533,0.29279,125.87,132.44,49.99,0.32463,125.88,55.261,144.62,0.30852,tetragonal,0,5.722180363,H4
mp-2237,TeO2,TeO2,146.56,152.63,57.533,0.32643,143.3,110.44,40.26,0.37156,144.93,48.897,131.86,0.34836,tetragonal,0,5.965444582,H4
mp-755013,Li5TaO5,Li5TaO5,96.111,171.43,71.267,0.20273,90.204,157.27,65.018,0.20942,93.157,68.142,164.35,0.20596,monoclinic,3.72,4.429785748,H2
mp-1029498,Li6CrN4,Li6CrN4,85.889,168.7,71.933,0.17263,85.073,167.7,71.58,0.17145,85.481,71.756,168.2,0.17205,tetragonal,1.4398,2.414737683,H1a
mp-3128,ErCoSi2,ErCoSi2,119,152.34,59.2,0.28664,116.51,146.87,56.932,0.2899,117.75,58.066,149.61,0.28825,orthorhombic,0,7.287231094,H4
mp-1018080,CrCo2Bi,CrCo2Bi,119.67,153.78,59.8,0.28582,119.67,142.83,54.887,0.30108,119.67,57.344,148.34,0.2934,cubic,0,10.71001966,H1a
mp-19407,MnWO4,MnWO4,128.89,147.97,56.533,0.30866,125.95,138.68,52.67,0.31649,127.42,54.602,143.33,0.31252,monoclinic,1.5844,6.873201343,H4
mp-6766,CaMg(SiO3)2,CaMg(SiO3)2,105.89,165.03,66.533,0.24024,97.386,153.69,62.121,0.23698,101.64,64.327,159.36,0.23868,monoclinic,4.9495,3.149491306,H2
mp-5348,MgCO3,MgCO3,109,165.99,66.6,0.24619,101.42,148.45,59.092,0.25605,105.21,62.846,157.23,0.25092,trigonal,4.9978,2.898973082,H2
mp-13504,CeAl4Co,CeAl4Co,103.11,161.69,65.267,0.23865,102.78,155.36,62.242,0.24807,102.95,63.754,158.54,0.24333,orthorhombic,0,4.851679101,H4
mp-20567,LiGa2Ru,LiGa2Ru,130.33,171.16,66.8,0.28113,130.33,109.7,40.338,0.35972,130.33,53.569,141.34,0.31925,cubic,0,7.377898331,H1a
mp-5632,DyAsO4,DyAsO4,130.11,162.88,63.067,0.29135,123.03,124.24,46.646,0.3317,126.57,54.856,143.79,0.31065,tetragonal,3.6528,6.15038468,H4
mp-978995,TmMnRh2,TmMnRh2,152.33,126.37,46.4,0.36174,152.33,126.36,46.395,0.36175,152.33,46.397,126.36,0.36175,cubic,0,10.63924699,H1a
mp-866188,TlCdRh2,TlCdRh2,138.33,148.03,56,0.32166,138.33,123.4,45.66,0.35132,138.33,50.83,135.85,0.33633,cubic,0,12.41106419,H1a
mp-865148,PaAlTc2,PaAlTc2,184,113.98,40.8,0.39676,184,93.712,33.111,0.41512,184,36.955,103.91,0.40588,cubic,0,10.89203175,H1a
mp-753721,GdOF,GdOF,116.33,155.34,60.8,0.27745,115.79,145.13,56.202,0.29111,116.06,58.501,150.26,0.28423,trigonal,3.3747,7.540978574,H2
mp-4148,Ho(SiPd)2,Ho(SiPd)2,134.78,144.93,54.867,0.32078,129.12,134.98,50.904,0.32578,131.95,52.885,139.96,0.32322,tetragonal,0,8.409939949,H4
mp-761285,Sc2V2O7,Sc2V2O7,141.33,140.86,52.8,0.33389,136.7,129.6,48.288,0.34198,139.01,50.544,135.24,0.33786,monoclinic,0.6345,3.445570575,H4
mp-10054,ZrAs,ZrAs,116,175.25,70.2,0.24821,116,123.81,46.824,0.32211,116,58.512,150.27,0.28409,cubic,0,6.701469344,H1a
mp-1025293,InAsPd5,InAsPd5,131.33,144.79,55,0.31626,131.28,135.84,51.163,0.32754,131.31,53.082,140.33,0.32187,tetragonal,0,10.25184665,H4
mp-5246,KNbO3,KNbO3,111,172.7,69.6,0.24069,96.392,142.71,56.935,0.25325,103.7,63.268,157.73,0.24649,orthorhombic,2.1256,4.360499901,H2
mp-1016850,BaRhO3,BaRhO3,130.33,149.7,57.2,0.30857,130.33,132.06,49.604,0.33113,130.33,53.402,140.96,0.31975,cubic,0,6.97270075,H1a
mp-865211,TmInRh2,TmInRh2,134.67,143.83,54.4,0.32199,134.67,132.17,49.449,0.33642,134.67,51.925,138.03,0.32917,cubic,0,11.27877468,H1a
mp-881,NpSn3,NpSn3,68.333,175.41,81.8,0.072176,68.333,174.28,81.067,0.074922,68.333,81.434,174.85,0.073547,cubic,0,9.716191543,H1a
mp-31011,Y2Si2Rh,Y2Si2Rh,105.67,158.5,63.4,0.25,105.35,154.68,61.611,0.25529,105.51,62.505,156.59,0.25264,monoclinic,0,5.641897622,H4
mp-1029368,Mg2VN3,Mg2VN3,132.44,151.53,57.867,0.30931,122.86,133.7,50.696,0.31864,127.65,54.281,142.63,0.31378,orthorhombic,1.8392,3.179716537,H2
mp-31383,Hf6CoBi2,Hf6CoBi2,113,154.66,60.8,0.27189,112.28,149.55,58.511,0.278,112.64,59.655,152.11,0.27493,hexagonal,0,13.23415733,H4
mp-2182,SnAs,SnAs,159.67,121.4,44.2,0.37328,159.67,119.96,43.629,0.37478,159.67,43.914,120.68,0.37403,cubic,0,6.560009821,H1a
mp-862360,Sc2NiIr,Sc2NiIr,146.33,136.11,50.6,0.34498,146.33,123.45,45.405,0.3594,146.33,48.003,129.81,0.35215,cubic,0,8.568913304,H1a
mp-862370,Sc2PdRu,Sc2PdRu,128.67,141.66,53.8,0.31651,128.67,141.62,53.782,0.31656,128.67,53.791,141.64,0.31653,cubic,0,7.14598091,H1a
mp-22150,Zr2InCo2,Zr2InCo2,132.11,142.26,53.867,0.32052,132.05,136.45,51.383,0.32778,132.08,52.625,139.37,0.32414,tetragonal,0,8.002082779,H4
mp-760414,Ti3PdO,Ti3PdO,168.22,124.79,45.333,0.37636,165.96,105.77,37.943,0.39378,167.09,41.638,115.33,0.38496,tetragonal,0,6.369331093,H4
mp-4822,Y(SiPd)2,Y(SiPd)2,133.89,143.58,54.333,0.32127,129.73,135.19,50.965,0.32632,131.81,52.649,139.39,0.32375,tetragonal,0,6.881947002,H4
mp-4604,Li7VN4,Li7VN4,83.333,173.43,75.2,0.15314,83.333,162.79,69.306,0.17442,83.333,72.253,168.16,0.16368,cubic,3.0112,2.331248421,H2
mp-755,CoSb2,CoSb2,100.44,169.75,69.667,0.21833,98.43,149.19,59.801,0.24739,99.437,64.734,159.57,0.23254,monoclinic,0,8.190607545,H4
mp-378,ErSi,ErSi,95,168.98,70.2,0.20355,94.862,155.08,63.167,0.22754,94.931,66.683,162.1,0.21541,orthorhombic,0,7.710453561,H4