Material_ID,Formula,pretty_formula,KV ,EV ,GV ,PV ,KR ,ER ,GR ,PR ,bulk,shear,young,poisson,csyst,gap,density,y_cla
mp-865768,Ti2MnOs,Ti2MnOs,205.67,237.91,91,0.3072,205.67,230.07,87.574,0.31356,205.67,89.287,234,0.31037,cubic,0,10.00906281,H1a
mp-776456,Ti2O3,Ti2O3,214.22,231.59,87.733,0.31982,211.18,226.54,85.733,0.32121,212.7,86.733,229.06,0.32051,monoclinic,0,4.723790481,H4
mp-546679,Nd2AlNO3,Nd2AlNO3,165.67,263.32,106.6,0.23509,165.59,253.49,101.81,0.24486,165.63,104.21,258.42,0.23996,tetragonal,1.1106,7.135184541,H1a
mp-613989,Pu,Pu,208,241.45,92.4,0.30653,197.97,228.85,87.524,0.30734,202.99,89.962,235.15,0.30693,monoclinic,0,22.08725058,H4
mp-862984,PmB3,PmB3,146.44,272.42,114.47,0.18996,146.2,265.68,110.97,0.19712,146.32,112.72,269.06,0.19353,hexagonal,0,6.347476416,H4
mp-582,CeIr2,CeIr2,258.33,210.12,77,0.36444,258.33,185.14,67.053,0.38056,258.33,72.026,197.7,0.37245,cubic,0,15.69637267,H1a
mp-972957,ScTiRu2,ScTiRu2,238,218.24,81,0.34717,238,205.09,75.6,0.35638,238,78.3,211.69,0.35176,cubic,0,7.862721118,H1a
mp-10910,Al2Ru,Al2Ru,168,262.74,106,0.23934,166.37,251.49,100.75,0.24805,167.18,103.38,257.13,0.24366,orthorhombic,0.0964,6.098591757,H2
mp-865486,VZnRu2,VZnRu2,227.67,231.04,86.8,0.33087,227.67,205.33,76.064,0.34969,227.67,81.432,218.27,0.34021,cubic,0,9.682978071,H1a
mp-999558,Mn2SiNi,Mn2SiNi,204.67,256.65,99.4,0.291,204.67,209.74,78.898,0.3292,204.67,89.149,233.54,0.30982,cubic,0,7.196624723,H1a
mp-865186,MgGaIr2,MgGaIr2,185.67,247.84,97,0.27752,185.67,243.51,95.016,0.28141,185.67,96.008,245.68,0.27946,cubic,0,13.69668517,H1a
mp-10200,ZrBeSi,ZrBeSi,139.11,275,117.47,0.17053,137.56,269.99,115.1,0.17289,138.34,116.28,272.49,0.1717,hexagonal,0,4.837725559,H4
mp-4019,CaTiO3,CaTiO3,171.78,254.74,101.67,0.25284,171.76,253.27,100.97,0.25423,171.77,101.32,254.01,0.25353,orthorhombic,2.3053,3.940464343,H2
mp-18093,Al2Mo3C,Al2Mo3C,225.67,230.81,86.8,0.32954,225.67,207.49,77.034,0.34676,225.67,81.917,219.23,0.33809,cubic,0,7.184749573,H1a
mp-5436,FeCo2Si,FeCo2Si,201.67,254.79,98.8,0.28943,201.67,214.89,81.25,0.3224,201.67,90.025,235.09,0.30571,cubic,0,7.534046853,H1a
mp-2025,HfBe5,HfBe5,131.44,282.78,123.87,0.14145,131.38,268.2,115.63,0.15977,131.41,119.75,275.55,0.15053,hexagonal,0,6.088097588,H4
mp-6996,SmB6,SmB6,174.67,293.71,120.4,0.21974,174.67,207.38,79.633,0.30212,174.67,100.02,251.96,0.25958,cubic,0,5.111503219,H1a
mp-998903,TiN,TiN,258.33,295.86,113,0.30912,258.33,87.098,30.163,0.44381,258.33,71.581,196.59,0.37317,cubic,0,5.58839296,H1a
mp-754875,TbSi2Rh3,TbSi2Rh3,175.67,253.85,100.8,0.25916,172.24,250.55,99.617,0.25756,173.95,100.21,252.2,0.25837,hexagonal,0,8.905337924,H4
mp-13108,SrHfO3,SrHfO3,165.33,260.78,105.4,0.23711,164.17,254.11,102.3,0.24202,164.75,103.85,257.45,0.23955,tetragonal,3.7906,7.345445358,H4
mp-13502,TmCoC2,TmCoC2,185.89,260.26,102.73,0.26666,165.16,241.75,96.234,0.25604,175.52,99.484,251.03,0.26164,orthorhombic,0,8.974300329,H4
mp-1483,SiRh,SiRh,221.33,222.75,83.6,0.33226,221.33,220.32,82.572,0.3341,221.33,83.086,221.54,0.33318,cubic,0,8.224432847,H1a
mp-1009078,CoN,CoN,304.67,165.21,58.6,0.40962,304.67,161.52,57.212,0.41164,304.67,57.906,163.37,0.41063,cubic,0,7.528090659,H1a
mp-6606,SrYSi4N7,SrYSi4N7,170.33,254.25,101.6,0.25122,170.31,253.92,101.45,0.2515,170.32,101.52,254.09,0.25136,hexagonal,2.7597,4.08406954,H1b
mp-1545,Nb3Rh,Nb3Rh,203.67,247.1,95.2,0.29779,203.67,218.75,82.797,0.32099,203.67,88.998,233.05,0.30929,cubic,0,9.086567873,H1a
mp-1235,TiIr,TiIr,228.22,220.01,82.133,0.33933,228.22,213.18,79.287,0.34432,228.22,80.71,216.6,0.34182,tetragonal,0,13.17172021,H4
mp-977541,Hf2TcOs,Hf2TcOs,209,233.35,88.8,0.31391,209,225.45,85.385,0.32021,209,87.092,229.41,0.31706,cubic,0,15.45655605,H1a
mp-4651,SrTiO3,SrTiO3,168.78,255.25,102.27,0.24795,168.04,254.2,101.85,0.24788,168.41,102.06,254.72,0.24791,tetragonal,1.8583,4.972062125,H1a
mp-551830,SrTiO3,SrTiO3,168.78,255.25,102.27,0.24795,168.04,254.2,101.85,0.24788,168.41,102.06,254.72,0.24791,tetragonal,1.787,4.96612114,H1a
mp-647,NbS,NbS,182.22,267.47,106.53,0.25536,178.71,226.91,88.059,0.28838,180.46,97.296,247.42,0.27149,hexagonal,0,6.558829836,H4
mp-935811,KNbO3,KNbO3,182.67,253.7,100,0.26852,182.67,238.27,92.883,0.2826,182.67,96.442,246.03,0.27552,cubic,1.4743,4.474689656,H5
mp-629397,FeNiN,FeNiN,221.11,238.83,90.467,0.31998,216.26,206.43,76.972,0.34092,218.69,83.719,222.73,0.33025,tetragonal,0,7.28852643,H4
mp-30043,CeSi2Ru3,CeSi2Ru3,189.67,246.86,96.2,0.28307,182.39,240.98,94.146,0.2798,186.03,95.173,243.92,0.28147,hexagonal,0,8.392014453,H4
mp-242,SrB6,SrB6,147.33,291.23,124.4,0.17055,147.33,240.64,97.998,0.22778,147.33,111.2,266.54,0.19848,cubic,0.035,3.417060889,H5
mp-13967,Nb5(CuSi)4,Nb5(CuSi)4,178.89,252.74,99.933,0.26453,178.81,243.88,95.815,0.27268,178.85,97.874,248.32,0.26859,tetragonal,0,7.278267455,H4
mp-481,ScPt3,ScPt3,199.67,241.05,92.8,0.29879,199.67,229.11,87.53,0.30876,199.67,90.165,235.11,0.30375,cubic,0,16.23708686,H1a
mp-1017515,Mn2CoAs,Mn2CoAs,242.33,220.58,81.8,0.34829,242.33,192.3,70.299,0.36774,242.33,76.05,206.54,0.35795,cubic,0,8.550562646,H1a
mp-861908,TaTiRu2,TaTiRu2,231.33,215.19,80,0.34496,231.33,212.87,79.039,0.34663,231.33,79.52,214.03,0.3458,cubic,0,11.63238239,H1a
mp-22191,HfFeGe,HfFeGe,200,241.56,93,0.2987,194.74,231.5,88.908,0.30188,197.37,90.954,236.53,0.30027,hexagonal,0,11.12127094,H4
mp-867114,TaBeRu2,TaBeRu2,221,220.82,82.8,0.33347,221,220.79,82.788,0.33349,221,82.794,220.81,0.33348,cubic,0,11.77313692,H1a
mp-2480,OsSe2,OsSe2,158.33,265.57,108.8,0.22045,158.33,254.66,103.36,0.23194,158.33,106.08,260.14,0.22617,cubic,0.582,10.6241208,H5
mp-1009832,TaC,TaC,225,218.4,81.6,0.33822,225,217.52,81.234,0.33887,225,81.417,217.96,0.33855,cubic,0,11.31412626,H1a
mp-2058,Ni3B,Ni3B,224.78,227.09,85.267,0.33162,224.75,209.04,77.71,0.34498,224.76,81.488,218.11,0.33827,orthorhombic,0,8.260441597,H4
mp-3166,Th(SiOs)2,Th(SiOs)2,184.22,247.84,97.133,0.27578,183.26,241.47,94.294,0.28039,183.74,95.714,244.66,0.27807,tetragonal,0,12.63131363,H4
mp-864761,Ta2MnOs,Ta2MnOs,260,200.76,73.2,0.37131,260,186.28,67.466,0.38059,260,70.333,193.55,0.37593,cubic,0,16.2926883,H1a
mp-569601,ErSi2Rh3,ErSi2Rh3,172.89,253.47,100.93,0.25565,170.13,250.43,99.798,0.25466,171.51,100.37,251.95,0.25516,hexagonal,0,9.124799213,H4
mp-866026,ErNbOs2,ErNbOs2,211.67,227.69,86.2,0.32072,211.67,225.09,85.083,0.32276,211.67,85.642,226.39,0.32174,cubic,0,15.11136409,H1a
mp-13154,Fe3C,Fe3C,197.78,238.65,91.867,0.29889,197.73,232.23,89.029,0.30425,197.76,90.448,235.45,0.30157,hexagonal,0,7.333626504,H4
mp-1002187,TcB,TcB,324.67,209.95,75.4,0.39222,324.67,81.44,27.925,0.45819,324.67,51.663,147.18,0.42445,cubic,0,8.454788431,H1a
mp-1495,ErIr2,ErIr2,196.67,240.56,92.8,0.29613,196.67,231.4,88.732,0.3039,196.67,90.766,235.99,0.30001,cubic,0,16.99403829,H1a
mp-974457,Ru3I,Ru3I,226.67,226.67,85,0.33333,226.67,205.37,76.121,0.34899,226.67,80.56,216.08,0.34112,cubic,0,11.32903121,H1a
mp-30765,LiPt7,LiPt7,220.33,225.47,84.8,0.32944,220.33,214.83,80.311,0.3375,220.33,82.555,220.17,0.33346,cubic,0,18.71219071,H1a
mp-570553,FeP4,FeP4,140.89,277.72,118.53,0.17147,140.28,259.53,108.89,0.19166,140.59,113.71,268.7,0.18146,monoclinic,0.8966,4.088310123,H4
mp-4500,ZrNbP,ZrNbP,173.89,255.39,101.73,0.25521,173.88,243.99,96.35,0.26614,173.89,99.042,249.71,0.26065,orthorhombic,0,6.893886886,H4
mp-865241,TmNbOs2,TmNbOs2,204.67,232.28,88.6,0.31085,204.67,228.16,86.805,0.3142,204.67,87.703,230.22,0.31252,cubic,0,15.27276029,H1a
mp-15701,MgSiN2,MgSiN2,176,287.33,117,0.22791,172.99,209.24,80.576,0.29841,174.49,98.788,249.31,0.26187,tetragonal,3.4803,3.086518018,H4
mp-866155,TiAlRu2,TiAlRu2,209,227.81,86.4,0.31833,209,226.93,86.023,0.31903,209,86.211,227.37,0.31868,cubic,0,8.111431976,H1a
mp-568509,Er(CoB)2,Er(CoB)2,151.11,274.55,114.67,0.19718,138.77,257.65,108.21,0.19056,144.94,111.44,266.11,0.194,tetragonal,0,8.820768085,H4
mp-1709,U2Ti,U2Ti,130,276.35,120.6,0.14571,129.73,270.76,117.5,0.15215,129.86,119.05,273.56,0.14892,hexagonal,0,15.63359724,H4
mp-867327,Hf2TcRu,Hf2TcRu,194,243.23,94.2,0.29104,194,230.08,88.332,0.30234,194,91.266,236.68,0.29666,cubic,0,13.45156039,H1a
mp-571193,MnP4,MnP4,137.89,276.4,118.53,0.16592,135.54,263.26,111.9,0.17628,136.71,115.22,269.85,0.17103,monoclinic,0.5601,4.081046978,H4
mp-30028,YSi2Rh3,YSi2Rh3,175.78,250.62,99.267,0.26237,172.58,247.17,97.984,0.2613,174.18,98.625,248.9,0.26184,hexagonal,0,7.722853003,H4
mp-865448,TiGaRu2,TiGaRu2,211.33,229.97,87.2,0.31864,211.33,220.37,83.083,0.32621,211.33,85.141,225.18,0.32241,cubic,0,9.306974001,H1a
mp-11531,VNi2,VNi2,210.44,253.75,97.667,0.29904,209.75,197.29,73.438,0.34324,210.1,85.552,225.98,0.32073,orthorhombic,0,8.166036424,H4
mp-556605,ZrO2,ZrO2,190.78,243.69,94.667,0.28711,189.66,233.9,90.349,0.29446,190.22,92.508,238.81,0.29076,orthorhombic,3.7114,5.77868372,H2
mp-972309,Ta2BN3,Ta2BN3,232.56,251.62,95.333,0.31967,203.05,189.56,70.498,0.34441,217.8,82.916,220.74,0.33109,hexagonal,0,9.544085606,H4
mp-3536,MgAl2O4,MgAl2O4,180.67,267.24,106.6,0.25347,180.67,221.45,85.456,0.29571,180.67,96.028,244.72,0.27424,cubic,5.1222,3.464623154,H2
mp-977430,MgNbRu2,MgNbRu2,228,214.39,79.8,0.34328,228,213.12,79.275,0.34421,228,79.537,213.76,0.34375,cubic,0,8.547752545,H1a
mp-4096,CeAlO3,CeAlO3,189.33,241.96,94,0.28701,188.91,236.71,91.668,0.29115,189.12,92.834,239.34,0.28908,tetragonal,0,6.542648154,H4
mp-1016876,ZnSiO3,ZnSiO3,257,254.69,95.4,0.33483,257,129.08,45.57,0.41629,257,70.485,193.74,0.37436,cubic,0,5.286241207,H1a
mp-775909,ZrO2,ZrO2,198,264.64,103.6,0.27724,190.06,206.89,78.453,0.31858,194.03,91.026,236.15,0.29716,tetragonal,3.4361,5.118955697,H4
mp-44,U,U,149.78,276.72,116.07,0.19208,144.17,251.52,104,0.20923,146.97,110.03,264.17,0.20043,orthorhombic,0,19.7765414,H4
mp-1597,UO2,UO2,200,241.56,93,0.2987,200,222.83,84.771,0.31431,200,88.886,232.25,0.30646,cubic,0,11.26254119,H1a
mp-867146,ScNbRu2,ScNbRu2,195,239.39,92.4,0.29539,195,231.4,88.846,0.30223,195,90.623,235.4,0.2988,cubic,0,8.682952253,H1a
mp-867307,Be2RuAu,Be2RuAu,209.33,229.7,87.2,0.31711,209.33,222.25,83.993,0.32305,209.33,85.596,225.99,0.32007,cubic,0,11.33579907,H1a
mp-569522,MnP4,MnP4,138,276.21,118.4,0.16642,136.55,261.73,110.85,0.18055,137.27,114.63,269,0.1734,triclinic,0.5244,4.056810497,H5
mp-636599,FeSnRu2,FeSnRu2,201,236.3,90.6,0.30407,201,226.51,86.309,0.31218,201,88.454,231.42,0.30811,cubic,0,10.63459729,H1a
mp-973471,KReO3,KReO3,143.33,272.95,115.4,0.18262,143.33,258.66,107.85,0.19923,143.33,111.62,265.86,0.19087,cubic,0,7.425354017,H1a
mp-13501,ErCoC2,ErCoC2,182.67,257.55,101.8,0.265,163.43,239.75,95.479,0.2555,173.05,98.639,248.67,0.2605,orthorhombic,0,8.803426165,H4
mp-1007855,FeNi3,FeNi3,194.56,254.22,99.133,0.28222,194.21,215.94,82.127,0.31469,194.38,90.63,235.32,0.29824,tetragonal,0,8.712064155,H4
mp-999088,ThCoC2,ThCoC2,190.67,246.17,95.8,0.28482,182.41,234.33,91.115,0.28589,186.54,93.458,240.25,0.28534,orthorhombic,0,9.873036452,H4
mp-12956,Yb(FeP3)4,Yb(FeP3)4,150.33,261.79,108.2,0.20976,150.33,261.66,108.13,0.20991,150.33,108.17,261.73,0.20984,cubic,0,5.414621077,H1a
mp-891,TaNi3,TaNi3,218.56,227.46,85.733,0.32654,218.45,211.2,78.872,0.33886,218.5,82.303,219.37,0.33267,orthorhombic,0,12.03346328,H4
mp-510623,Fe3C,Fe3C,223.67,254.25,97,0.31055,222.63,176.53,64.53,0.36784,223.15,80.765,216.21,0.33852,orthorhombic,0,7.833525561,H4
mp-6353,Y2Si4CN6,Y2Si4CN6,171.33,256.58,102.6,0.25041,162.52,247.63,99.365,0.24605,166.93,100.98,252.11,0.24828,monoclinic,3.117,4.140778051,H2
mp-1021489,IrO3,IrO3,178,265.75,106.2,0.25117,178,224.45,87.007,0.28984,178,96.604,245.41,0.27021,cubic,0,7.321746567,H1a
mp-9382,SrZrN2,SrZrN2,149.67,263.51,109.2,0.20656,149.64,260.34,107.58,0.21004,149.65,108.39,261.93,0.2083,trigonal,0.2746,5.779513633,H2
mp-487,MnP4,MnP4,139.33,276.43,118.2,0.16934,137.07,259.1,109.33,0.18495,138.2,113.77,267.81,0.17703,triclinic,0.4511,4.057132115,H5
mp-864949,MnGaRh2,MnGaRh2,195,242.07,93.6,0.2931,195,226.92,86.871,0.30605,195,90.236,234.53,0.29955,cubic,0,9.811166235,H1a
mp-22320,GaRu,GaRu,200.67,235.79,90.4,0.30416,200.67,225.71,85.981,0.31254,200.67,88.19,230.76,0.30833,cubic,0,10.19499411,H1a
mp-2243,NbS,NbS,181.44,245.83,96.467,0.27419,178.09,242.1,95.059,0.27343,179.77,95.763,243.97,0.27381,hexagonal,0,6.545345161,H4
mp-22204,Co2P,Co2P,231.56,221.31,82.533,0.34071,225.1,202.9,75.161,0.34977,228.33,78.847,212.12,0.34516,orthorhombic,0,7.743706857,H4
mp-10894,MnAlRh2,MnAlRh2,184.33,247.14,96.8,0.27655,184.33,234.72,91.135,0.28777,184.33,93.967,240.96,0.28214,cubic,0,8.642106663,H1a
mp-12608,CuPt7,CuPt7,245,204.17,75,0.36111,245,196.4,71.87,0.36639,245,73.435,200.29,0.36375,cubic,0,19.40823028,H1a
mp-1285,PtO2,PtO2,206.67,254.32,98.2,0.2949,201.76,200.22,75.009,0.33461,204.21,86.605,227.63,0.31422,orthorhombic,0.6629,11.24971615,H2
mp-1936,TaAs,TaAs,177.67,256.85,102,0.25906,173.85,234.06,91.743,0.27562,175.76,96.871,245.51,0.26719,tetragonal,0,12.03057069,H4
mp-2582,TiSi2,TiSi2,144.22,272.81,115.13,0.18474,140.47,256.16,107.08,0.19606,142.34,111.11,264.51,0.1903,orthorhombic,0,4.061412622,H4
mp-866134,VFe3,VFe3,193.33,244.89,95,0.28889,193.33,223.54,85.497,0.30729,193.33,90.249,234.29,0.29803,cubic,0,7.739814966,H1a
mp-2028,Be2Nb,Be2Nb,159.33,255.03,103.4,0.23323,159.33,254.96,103.36,0.23331,159.33,103.38,254.99,0.23327,cubic,0,5.269015614,H1a
mp-864985,MnZnIr2,MnZnIr2,224.33,263.46,101,0.30426,224.33,160.82,58.245,0.38052,224.33,79.623,213.6,0.34131,cubic,0,15.17635951,H1a
mp-3582,Mg(BC)2,Mg(BC)2,178.33,332.13,139.6,0.18959,137.41,175.29,68.08,0.28739,157.87,103.84,255.5,0.23027,orthorhombic,1.0453,2.407814463,H2
mp-982048,Ge2O3,Ge2O3,162.33,253.42,102.2,0.23982,162.33,252.38,101.69,0.24089,162.33,101.95,252.9,0.24035,cubic,0.7532,5.97001655,H5
mp-644481,ScO,ScO,174.67,258.24,103,0.25359,174.67,232.25,90.835,0.27839,174.67,96.918,245.37,0.26587,cubic,0,4.503341509,H1a
mp-4930,TiAl2O5,TiAl2O5,186,246.6,96.4,0.27903,180.7,233.35,90.813,0.28477,183.35,93.606,239.98,0.28185,orthorhombic,2.9434,3.609657816,H2
mp-1008929,FeN,FeN,195.33,239.89,92.6,0.29531,195.33,224.6,85.832,0.30836,195.33,89.216,232.28,0.30181,cubic,0,6.830440922,H1a
mp-1025309,Pr(Re2Si)2,Pr(Re2Si)2,166.22,267,108.33,0.23229,163.54,235.01,93.222,0.2605,164.88,100.78,251.16,0.24612,orthorhombic,0,12.84647166,H4
mp-570557,NbCo3,NbCo3,199.56,231.84,88.733,0.30637,198.51,227.51,86.903,0.30898,199.03,87.818,229.68,0.30767,hexagonal,0,9.003407474,H4
mp-5149,NbAlCo2,NbAlCo2,192,241.55,93.6,0.29032,192,226.46,86.871,0.30342,192,90.236,234.04,0.29684,cubic,0,7.408918316,H1a
mp-2213,FeNi,FeNi,187.11,260.81,102.87,0.26769,186.87,212.42,81.043,0.31054,186.99,91.955,237.01,0.28875,tetragonal,0,8.452470899,H4
mp-756638,NbRhO4,NbRhO4,214,250.08,95.8,0.30523,213.8,187.62,69.297,0.35374,213.9,82.548,219.42,0.32903,tetragonal,0.9258,6.135745582,H1a
mp-16960,AlPt2,AlPt2,206.44,229.47,87.267,0.31475,206.36,219.05,82.779,0.32309,206.4,85.023,224.27,0.3189,orthorhombic,0,15.39405592,H4
mp-10010,Al(CoSi)2,Al(CoSi)2,177.33,249.12,98.4,0.26586,173.78,238.26,93.693,0.2715,175.56,96.046,243.7,0.26864,trigonal,0,5.38758579,H2
mp-1025277,Pr2AlNO3,Pr2AlNO3,161,257.13,104.2,0.23382,160.92,247.64,99.573,0.24352,160.96,101.89,252.4,0.23865,tetragonal,1.0491,6.89076928,H1a
mp-675025,SbRhO4,SbRhO4,193.33,266.29,104.8,0.27044,183.54,204.04,77.597,0.31472,188.44,91.199,235.59,0.29163,orthorhombic,0,6.837297728,H4
mp-4037,TmNiC2,TmNiC2,173.67,259.67,103.8,0.2508,153.32,241.86,97.753,0.23709,163.49,100.78,250.8,0.24433,orthorhombic,0,8.880615456,H4
mp-10699,LuRh3C,LuRh3C,208.33,222.61,84.2,0.32191,208.33,222.19,84.021,0.32225,208.33,84.11,222.4,0.32208,cubic,0,11.50305739,H1a
mp-867137,ScVRu2,ScVRu2,195.33,239.89,92.6,0.29531,195.33,221.78,84.598,0.31077,195.33,88.599,230.89,0.303,cubic,0,8.287841687,H1a
mp-19850,MnCo2Ge,MnCo2Ge,195,248.73,96.6,0.28741,195,212.91,80.769,0.31802,195,88.685,231.03,0.30254,cubic,0,8.602198466,H1a
mp-13079,Mn2AlCo,Mn2AlCo,158.33,269.13,110.6,0.2167,158.33,237.53,95.016,0.24997,158.33,102.81,253.55,0.23311,cubic,0,6.86823505,H1a
mp-2090,FeCo,FeCo,189,254.15,99.6,0.27588,189,214.86,81.973,0.31053,189,90.786,234.77,0.29297,cubic,0,8.290362741,H1a
mp-998552,BaHfO3,BaHfO3,159.33,253.81,102.8,0.2345,159.33,251.61,101.72,0.23681,159.33,102.26,252.71,0.23566,cubic,3.941,8.128152155,H2
mp-866376,TiMn2Ge,TiMn2Ge,195.33,242.57,93.8,0.29303,195.33,218.22,83.048,0.31381,195.33,88.424,230.49,0.30333,cubic,0,7.557976563,H1a
mp-972337,Ti2IrW,Ti2IrW,191,233.35,90,0.29638,191,233.02,89.852,0.29667,191,89.926,233.18,0.29652,cubic,0,12.73920902,H1a
mp-1016930,ZnGeO3,ZnGeO3,195,232.65,89.4,0.30116,195,228.11,87.396,0.30503,195,88.398,230.38,0.30309,cubic,0,5.991792726,H1a
mp-9711,Ba2Si5N8,Ba2Si5N8,169.56,248.89,99.133,0.25535,169.53,243.5,96.582,0.26061,169.54,97.857,246.2,0.25798,orthorhombic,2.8921,4.517865961,H2
mp-12990,Ti2AlC,Ti2AlC,136.89,264.99,112.53,0.17737,136.43,264,112.1,0.17749,136.66,112.32,264.5,0.17743,hexagonal,0,3.993101063,H4
mp-27164,FeP4,FeP4,137.78,270.03,115.07,0.17335,137.75,257.75,108.46,0.18815,137.76,111.77,263.93,0.18071,monoclinic,1.0697,4.117534285,H4
mp-1007657,HfRu3,HfRu3,202,235.09,90,0.30603,202,215.93,81.679,0.32184,202,85.84,225.57,0.31389,cubic,0,12.92205717,H1a
mp-1867,Ta2Ni,Ta2Ni,215.22,220.48,82.933,0.32926,215.19,212.71,79.653,0.33525,215.21,81.293,216.61,0.33225,tetragonal,0,14.78623217,H4
mp-865803,Ti2MoPt,Ti2MoPt,192.33,235.36,90.8,0.29605,192.33,227.83,87.454,0.30257,192.33,89.127,231.61,0.2993,cubic,0,10.29814782,H1a
mp-574,Ta2Co,Ta2Co,222,217.13,81.2,0.33699,222,206.81,76.896,0.34474,222,79.048,211.98,0.34085,tetragonal,0,14.93141113,H4
mp-30555,TaGaCo2,TaGaCo2,202,240.53,92.4,0.30155,202,209.63,78.982,0.32704,202,85.691,225.23,0.31417,cubic,0,11.56215022,H1a
mp-33997,TaO2F,TaO2F,184.56,294.93,119.53,0.23366,182,174.68,65.177,0.34004,183.28,92.355,237.22,0.28428,tetragonal,2.1336,6.252120246,H4
mp-9958,Ti2GeC,Ti2GeC,153.67,255.77,104.6,0.2226,153.43,253.9,103.7,0.22419,153.55,104.15,254.84,0.22339,hexagonal,0,5.564792022,H4
mp-1025056,ThSi2Ru3,ThSi2Ru3,183.44,241.01,94.067,0.28104,182.39,233.41,90.698,0.28671,182.92,92.383,237.21,0.28386,hexagonal,0,9.824236309,H4
mp-2658,AlFe,AlFe,174.67,262,104.8,0.25,174.67,221.75,86.054,0.28841,174.67,95.427,242.18,0.26891,cubic,0,5.791723495,H1a
mp-3657,TiCo2Si,TiCo2Si,201.67,235.94,90.4,0.305,201.67,213.64,80.714,0.32344,201.67,85.557,224.87,0.31416,cubic,0,6.76259791,H1a
mp-776404,ZrO2,ZrO2,198,234.93,90.2,0.30225,192.94,222.88,85.233,0.30747,195.47,87.716,228.91,0.30482,orthorhombic,3.4629,5.570855816,H2
mp-1017553,CdCo3N,CdCo3N,186.67,234.84,91,0.29032,186.67,234.27,90.742,0.29083,186.67,90.871,234.55,0.29058,cubic,0,8.788505612,H1a
mp-568555,SmSi2Rh3,SmSi2Rh3,167.78,248.74,99.267,0.2529,164.44,245.59,98.149,0.25109,166.11,98.708,247.17,0.252,hexagonal,0,8.6406463,H4
mp-1358,DyIr2,DyIr2,191,236.03,91.2,0.29404,191,227.23,87.279,0.30172,191,89.24,231.64,0.29787,cubic,0,16.66565227,H1a
mp-2762,YIr2,YIr2,196,232.8,89.4,0.30204,196,223.95,85.505,0.30957,196,87.453,228.39,0.30579,cubic,0,14.35964193,H1a
mp-641526,Fe13Co3,Fe13Co3,184.33,244.09,95.4,0.2793,184.31,227.53,87.9,0.29425,184.32,91.65,235.86,0.28673,tetragonal,0,8.039149067,H4
mp-21907,NbSiAs,NbSiAs,153.22,257.09,105.33,0.22035,153.16,251.3,102.44,0.22653,153.19,103.89,254.2,0.22343,tetragonal,0,6.601363694,H4
mp-1009835,TaC,TaC,290.67,267.69,99.4,0.34651,290.67,47.725,16.204,0.47263,290.67,57.802,162.63,0.40675,cubic,0,14.63931452,H1a
mp-20874,EuB6,EuB6,154.67,284.51,119.2,0.19342,154.67,219.87,87.037,0.26307,154.67,103.12,253.11,0.22726,cubic,0,4.963690743,H1a
mp-631343,LaRe2W,LaRe2W,182.67,245.94,96.4,0.27561,182.67,226.42,87.53,0.29341,182.67,91.965,236.25,0.28445,cubic,0,16.02093586,H1a
mp-1963,NbRh,NbRh,220.11,235.44,89.067,0.32172,219.34,187.76,69.167,0.35732,219.72,79.117,211.92,0.33926,tetragonal,0,10.1117567,H4
mp-864903,MgTaRu2,MgTaRu2,197.33,226.65,86.6,0.30858,197.33,226.57,86.566,0.30864,197.33,86.583,226.61,0.30861,cubic,0,10.98079486,H1a
mp-10469,NbSiPt,NbSiPt,215.11,217.95,81.867,0.33113,214.51,211.69,79.252,0.33553,214.81,80.559,214.82,0.33333,orthorhombic,0,11.28890713,H4