Material_ID,Formula,pretty_formula,KV ,EV ,GV ,PV ,KR ,ER ,GR ,PR ,bulk,shear,young,poisson,csyst,gap,density,y_cla
mp-871,FeSi,FeSi,211.33,342.82,139.4,0.22964,211.33,339.77,137.89,0.23204,211.33,138.64,341.3,0.23084,cubic,0.1664,6.333879998,H5
mp-11270,MnBe2,MnBe2,163,365.74,162.4,0.12604,162.73,365.13,162.13,0.12605,162.87,162.26,365.43,0.12604,hexagonal,0,4.819797134,H4
mp-190,ReO3,ReO3,243.67,380.38,153.4,0.23982,243.67,258.34,97.613,0.32329,243.67,125.51,321.35,0.2802,cubic,0,7.108137485,H1a
mp-29026,MnWN2,MnWN2,289.22,299.78,112.93,0.32725,288.01,284.37,106.47,0.33544,288.62,109.7,292.1,0.33132,hexagonal,0,10.73323715,H4
mp-1008559,BP,BP,170.33,365.54,160,0.14232,170.29,357.9,155.65,0.14972,170.31,157.82,361.74,0.14601,hexagonal,1.0759,2.953047273,H1a
mp-5197,ErB2Ir3,ErB2Ir3,243.56,329.65,129.33,0.27442,242.71,312.73,121.66,0.28525,243.13,125.5,321.22,0.2798,hexagonal,0,15.6803198,H4
mp-1025071,YbB2Ir3,YbB2Ir3,234.44,327.59,129.27,0.26712,234.44,325.32,128.21,0.26873,234.44,128.74,326.45,0.26792,hexagonal,0,15.92662848,H4
mp-7506,Cr5Si3,Cr5Si3,223.78,334.83,133.87,0.25062,223.04,331.13,132.18,0.25256,223.41,133.02,332.98,0.25159,tetragonal,0,6.048001973,H4
mp-715,ZrIr2,ZrIr2,245.33,324.5,126.8,0.27955,245.33,314.14,122.08,0.28659,245.33,124.44,319.33,0.28306,cubic,0,15.35965047,H1a
mp-1009838,ZrN,ZrN,240.44,343.42,136.07,0.26195,239.33,301.57,116.89,0.28999,239.89,126.48,322.72,0.27579,hexagonal,0,6.923749064,H4
mp-22351,NbRu3C,NbRu3C,227,332.97,132.6,0.25553,227,328.15,130.31,0.25907,227,131.46,330.56,0.2573,cubic,0,10.08831489,H1a
mp-867275,BeVOs2,BeVOs2,279.67,302.02,114.4,0.32001,279.67,291.75,110,0.32613,279.67,112.2,296.9,0.32307,cubic,0,14.45293272,H1a
mp-996940,TiReN3,TiReN3,263.78,310.03,118.87,0.30411,263.78,304.35,116.37,0.3077,263.78,117.62,307.19,0.3059,trigonal,0,8.586445955,H2
mp-219,MoP,MoP,223.56,340.73,136.73,0.24597,215.59,328.46,131.8,0.24608,219.57,134.26,334.59,0.24603,hexagonal,0,7.222266929,H4
mp-867816,TaRu3,TaRu3,265,326.29,126,0.29479,265,285.25,108,0.3206,265,117,305.97,0.30757,cubic,0,13.47656327,H1a
mp-7574,AlBMo,AlBMo,211.89,349.28,142.53,0.22526,210.27,329.04,132.76,0.23919,211.08,137.65,339.21,0.23216,orthorhombic,0,6.30129593,H4
mp-867846,TaTiRe2,TaTiRe2,262.67,307.89,118,0.30464,262.67,306.52,117.4,0.30551,262.67,117.7,307.21,0.30507,cubic,0,15.7107563,H1a
mp-864990,Mn2AlW,Mn2AlW,236,327.35,129,0.26882,236,320.52,125.83,0.27365,236,127.41,323.94,0.27123,cubic,0,10.371409,H1a
mp-10115,ThB2Ir3,ThB2Ir3,249.33,326.14,127.2,0.28199,246.17,306.87,118.74,0.29223,247.75,122.97,316.54,0.28706,hexagonal,0,16.26170928,H4
mp-1479,BP,BP,160.33,367.9,164.6,0.11757,160.33,360.42,160.14,0.12535,160.33,162.37,364.17,0.12144,cubic,1.4662,2.952601818,H5
mp-866284,Al2IrOs,Al2IrOs,235,324.56,127.8,0.26981,235,323.87,127.48,0.27031,235,127.64,324.22,0.27006,cubic,0,13.20946087,H1a
mp-1120,Mo3Ir,Mo3Ir,288.33,305.45,115.4,0.32344,288.33,273.76,102.01,0.34176,288.33,108.71,289.71,0.33254,cubic,0,12.73265789,H1a
mp-1152,TiRh3,TiRh3,230.33,339.23,135.2,0.25454,230.33,313.94,123.32,0.27284,230.33,129.26,326.67,0.26362,cubic,0,10.28225192,H1a
mp-865901,BeCo2Si,BeCo2Si,227.33,334.73,133.4,0.2546,227.33,321.46,127.13,0.26433,227.33,130.26,328.12,0.25944,cubic,0,6.669417259,H1a
mp-2267,HoB2,HoB2,169.67,360.32,157.2,0.14605,169.66,358.33,156.07,0.148,169.67,156.63,359.33,0.14702,hexagonal,0,8.64241442,H4
mp-603694,Si3N4,Si3N4,221.11,333.75,133.67,0.24843,221.03,329.33,131.56,0.25166,221.07,132.61,331.54,0.25004,trigonal,0,3.211673461,H2
mp-867280,Be2IrPt,Be2IrPt,240.33,328.7,129.2,0.27205,240.33,310.56,120.88,0.28463,240.33,125.04,319.67,0.27831,cubic,0,15.0100871,H1a
mp-1024993,DyB2Ir3,DyB2Ir3,240.44,328.87,129.27,0.27204,239.76,310.03,120.68,0.28449,240.1,124.97,319.49,0.27823,hexagonal,0,15.45303348,H4
mp-20741,ReO3,ReO3,240,377.33,152.4,0.23796,240,257.6,97.492,0.32111,240,124.95,319.41,0.27819,cubic,0,7.129435115,H1a
mp-972205,V2MoOs,V2MoOs,240.67,325.31,127.6,0.27472,240.67,312.23,121.61,0.28377,240.67,124.6,318.79,0.27923,cubic,0,11.42039661,H1a
mp-975322,RbFeO3,RbFeO3,517.44,125.14,42.867,0.45969,517.44,122.35,41.885,0.46059,517.44,42.376,123.75,0.46014,cubic,0,4.748188766,H1a
mp-627439,Mn3GaN,Mn3GaN,230,329.87,130.8,0.26096,230,320.07,126.2,0.26807,230,128.5,324.98,0.26451,cubic,0,7.633000076,H1a
mp-865966,BeAlIr2,BeAlIr2,237.67,322.1,126.4,0.27412,237.67,318.33,124.66,0.27677,237.67,125.53,320.21,0.27545,cubic,0,13.96270069,H1a
mp-864966,MnSiRu2,MnSiRu2,245.33,319.24,124.4,0.28312,245.33,311.39,120.84,0.28846,245.33,122.62,315.33,0.28578,cubic,0,9.126979124,H1a
mp-1017542,ZrOs3,ZrOs3,281.67,299.48,113.2,0.32279,281.67,283.1,106.23,0.33248,281.67,109.72,291.32,0.32762,cubic,0,17.21800582,H1a
mp-1019550,BeGeN2,BeGeN2,191,349.44,146.2,0.19508,190.88,342.87,142.79,0.20062,190.94,144.49,346.16,0.19784,orthorhombic,3.4024,4.849650018,H2
mp-547271,ReO3,ReO3,238.44,377.45,152.67,0.23618,238.44,254.67,96.321,0.32199,238.44,124.49,318.12,0.27764,tetragonal,0,7.129165629,H4
mp-1008826,OsN2,OsN2,390,214.62,76.2,0.40828,390,214.59,76.187,0.4083,390,76.194,214.61,0.40829,cubic,0,12.51466869,H1a
mp-865462,MnV2Os,MnV2Os,264.33,300.85,114.8,0.31031,264.33,300.42,114.61,0.31058,264.33,114.71,300.63,0.31044,cubic,0,11.13807157,H1a
mp-755021,ReO3,ReO3,238,375.96,152,0.23672,238,254.76,96.383,0.3216,238,124.19,317.37,0.27775,trigonal,0,7.151499223,H2
mp-11593,CeB2Ir3,CeB2Ir3,242,328.61,129,0.27368,240.24,300.95,116.54,0.29122,241.12,122.77,314.87,0.28236,hexagonal,0,14.76823951,H4
mp-1989,Ta5Si3,Ta5Si3,214.56,332.18,133.73,0.24196,214.4,329.95,132.67,0.24351,214.48,133.2,331.07,0.24274,tetragonal,0,12.7874257,H4
mp-7283,LaB4,LaB4,172.78,353.8,152.67,0.15872,172.67,352.36,151.89,0.1599,172.73,152.28,353.08,0.15931,tetragonal,0,5.412128579,H4
mp-972209,Ta2TcW,Ta2TcW,250.33,312.18,120.8,0.29215,250.33,304.86,117.52,0.29703,250.33,119.16,308.53,0.29459,cubic,0,16.0368259,H1a
mp-316,MnV,MnV,242.67,329.61,129.4,0.27362,242.67,296.85,114.52,0.29612,242.67,121.96,313.38,0.28477,cubic,0,7.40626179,H1a
mvc-13303,VN,VN,307.78,297.42,111.07,0.33894,307.51,241.94,88.371,0.36887,307.64,99.719,269.99,0.35373,monoclinic,0,6.150247681,H4
mp-21248,NbSiIr,NbSiIr,245,316.1,123,0.28497,244.07,307.12,119.01,0.29028,244.54,121.01,311.62,0.28761,orthorhombic,0,11.48774687,H4
mp-4938,ScCo3B2,ScCo3B2,222.56,329.66,131.53,0.25313,222.44,320.11,127.01,0.26015,222.5,129.27,324.9,0.25663,hexagonal,0,6.554709347,H4
mp-864647,Hf2N,Hf2N,194.78,195.31,73.267,0.33288,194.28,461.13,208.77,0.10442,194.53,141.02,340.72,0.20808,tetragonal,0,13.23693362,H4
mp-862847,PaB3,PaB3,208.11,357.48,147.27,0.21371,187.16,320.52,131.95,0.21457,197.63,139.61,339,0.21412,hexagonal,0,9.880376068,H4
mp-8102,W3N4,W3N4,315,292.22,108.6,0.34539,315,233.61,84.863,0.3764,315,96.732,263.25,0.36072,cubic,0,13.35455606,H1a
mp-1005,FeP,FeP,214.78,337.44,136.27,0.23815,209.13,322.47,129.71,0.243,211.95,132.99,329.96,0.24054,orthorhombic,0,6.371739444,H4
mp-864971,MnSnRu2,MnSnRu2,265.67,308.35,118,0.30656,265.67,284.25,107.54,0.32167,265.67,112.77,296.37,0.31407,cubic,0,10.26170182,H1a
mp-11511,LaAlGe,LaAlGe,533.44,125.25,42.867,0.46087,491.27,116.63,39.929,0.46043,512.36,41.398,120.94,0.46066,tetragonal,0,5.585194128,H4
mp-866154,TiBeIr2,TiBeIr2,241.33,311.9,121.4,0.2846,241.33,311.89,121.4,0.28461,241.33,121.4,311.9,0.2846,cubic,0,13.8645236,H1a
mp-996161,Nb3AlC2,Nb3AlC2,203.11,336.89,137.67,0.22356,202.69,332.89,135.73,0.22628,202.9,136.7,334.89,0.22492,hexagonal,0,6.702489457,H4
mp-8110,AlBO3,AlBO3,210.56,346.08,141.13,0.22606,198.85,321.06,130.42,0.2309,204.7,135.78,333.57,0.22841,trigonal,5.8626,3.497216426,H2
mp-10030,RuC,RuC,342.11,284.94,104.67,0.36118,333.76,207.39,74.257,0.39644,337.94,89.462,246.62,0.37837,hexagonal,0,9.378281415,H4
mp-7188,Al2Os,Al2Os,190.89,348.51,145.73,0.19571,190.89,332.25,137.3,0.20991,190.89,141.52,340.43,0.20277,tetragonal,0.3106,9.597862886,H1a
mp-866001,AlVRu2,AlVRu2,235,315.49,123.6,0.27625,235,313.6,122.73,0.27759,235,123.17,314.55,0.27692,cubic,0,8.575394574,H1a
mp-20180,Mn3GeC,Mn3GeC,241.33,322.4,126.2,0.27735,241.33,298.32,115.27,0.29398,241.33,120.74,310.44,0.28561,cubic,0,7.589017684,H1a
mp-4992,ScCrC2,ScCrC2,209.56,333.68,135.13,0.23462,209.44,325.2,131,0.24121,209.5,133.07,329.45,0.2379,hexagonal,0,4.839726603,H4
mp-865656,TiMn2W,TiMn2W,243,322.29,126,0.27895,243,295.47,113.87,0.29735,243,119.94,308.98,0.28808,cubic,0,10.69468704,H1a
mp-865933,LiSiIr2,LiSiIr2,294.67,275.31,102.4,0.34428,294.67,274.64,102.12,0.34466,294.67,102.26,274.97,0.34447,cubic,0,14.14119094,H1a
mp-1799,TaCo2,TaCo2,243.67,310.12,120.4,0.28788,243.67,306.88,118.94,0.2901,243.67,119.67,308.5,0.28899,cubic,0,13.02599777,H1a
mp-1018166,AlTc2,AlTc2,224.33,342.73,137.6,0.24537,224.06,297.58,116.36,0.27865,224.2,126.98,320.45,0.26178,tetragonal,0,8.66348098,H4
mp-865916,TiVRe2,TiVRe2,255,303.08,116.4,0.30191,255,298.82,114.52,0.30469,255,115.46,300.96,0.3033,cubic,0,13.40356379,H1a
mp-19066,W3O8,W3O8,228.11,365.19,148.07,0.23318,223.12,271.32,104.57,0.29732,225.61,126.32,319.35,0.26408,orthorhombic,0,8.420520244,H4
mp-19390,WO3,WO3,228,375.1,153,0.22581,228,256.16,97.565,0.31275,228,125.28,317.66,0.26779,cubic,1.1799,6.679733428,H5
mp-2006,V3Ir,V3Ir,237.33,317.69,124.4,0.2769,237.33,305.55,118.85,0.28543,237.33,121.62,311.64,0.28115,cubic,0,10.44657081,H1a
mp-1019743,Ga3BN4,Ga3BN4,207.33,342.83,140,0.22441,207.33,315.93,126.77,0.24604,207.33,133.39,329.5,0.23513,cubic,2.9833,5.72297568,H2
mp-866114,HfTc2W,HfTc2W,243.67,316.73,123.4,0.28336,243.67,297.22,114.61,0.2967,243.67,119,307.03,0.28999,cubic,0,14.25743583,H1a
mp-8771,Lu2(NiB2)3,Lu2(NiB2)3,194.67,338,139.6,0.21061,194.24,334.75,138.01,0.21277,194.45,138.81,336.38,0.21169,orthorhombic,0,8.757489579,H4
mp-1332,Si3Mo5,Si3Mo5,241.89,310.53,120.73,0.28603,240.97,306.1,118.8,0.28829,241.43,119.77,308.32,0.28716,tetragonal,0,8.079854721,H4
mp-1794,BeO,BeO,156.33,418.86,198.8,0.053459,156.33,281.62,117.36,0.19977,156.33,158.08,354.69,0.12186,cubic,8.2675,3.418546903,H2
mp-20905,OsS2,OsS2,193.33,346.46,144.2,0.20133,193.33,326.39,133.92,0.21863,193.33,139.06,336.5,0.20991,cubic,0,9.297222127,H1a
mp-2057,DyB2,DyB2,166.44,350.76,152.67,0.14877,166.44,349.22,151.79,0.15032,166.44,152.23,349.99,0.14954,hexagonal,0,8.402817228,H4
mp-1018070,Ti2InFe,Ti2InFe,571,72.755,24.6,0.47876,571,72.692,24.578,0.47878,571,24.589,72.724,0.47877,cubic,0,6.81362168,H1a
mp-862699,ScTaOs2,ScTaOs2,235,312.88,122.4,0.2781,235,310.11,121.13,0.28007,235,121.76,311.49,0.27908,cubic,0,15.41153524,H1a
mp-1102,LuN,LuN,179.67,342.79,145,0.18202,179.67,342.77,144.99,0.18204,179.67,144.99,342.78,0.18203,cubic,0.3793,11.66342333,H5
mp-10113,ScBIr3,ScBIr3,238.67,321,125.8,0.27584,238.67,296.03,114.45,0.29327,238.67,120.13,308.6,0.2845,cubic,0,14.69224795,H1a
mp-866213,TiTc2Mo,TiTc2Mo,248.33,307.83,119,0.2934,248.33,296.37,113.89,0.3011,248.33,116.45,302.12,0.29724,cubic,0,9.323271803,H1a
mp-972066,ZrAlO3,ZrAlO3,240.67,306.93,119.2,0.28745,240.67,306.91,119.19,0.28746,240.67,119.2,306.92,0.28745,cubic,0,5.572820739,H1a
mp-1016999,SrGeO3,SrGeO3,225.67,323.37,128.2,0.26118,225.67,309.09,121.52,0.27172,225.67,124.86,316.26,0.26643,cubic,0,6.027906043,H1a
mp-865653,TiNbRe2,TiNbRe2,253.67,299.71,115,0.30308,253.67,297.4,113.98,0.3046,253.67,114.49,298.56,0.30384,cubic,0,13.37431853,H1a
mp-864980,MnAlRu2,MnAlRu2,218.33,327.5,131,0.25,218.33,313.55,124.36,0.26065,218.33,127.68,320.55,0.2553,cubic,0,8.796413581,H1a
mp-4593,Mn3AlC,Mn3AlC,215.33,330.47,132.8,0.24422,215.33,313.99,124.9,0.25698,215.33,128.85,322.27,0.25057,cubic,0,6.135568186,H1a
mp-864770,Ta2MoOs,Ta2MoOs,214.67,328.23,131.8,0.24517,214.67,316.89,126.35,0.25397,214.67,129.08,322.58,0.24955,cubic,0,16.31549325,H1a
mp-961653,FeSiW,FeSiW,253,300.06,115.2,0.30233,253,297.1,113.89,0.30428,253,114.55,298.58,0.30331,cubic,0.1954,10.42050737,H5
mp-10711,VSi2,VSi2,175.33,345.77,147.6,0.17132,173.84,343.03,146.45,0.17112,174.59,147.03,344.4,0.17122,hexagonal,0,4.640836148,H4
mp-517,TaSi2,TaSi2,186,340.34,142.4,0.19503,184.05,337.68,141.38,0.19421,185.02,141.89,339.01,0.19462,hexagonal,0,8.942224577,H4
mp-11192,TaSi2,TaSi2,185.44,341.02,142.87,0.19351,182.95,337.72,141.62,0.19233,184.2,142.24,339.37,0.19292,hexagonal,0,8.940924456,H4
mp-20994,TaO2,TaO2,245.89,324.46,126.73,0.28008,245.42,280.95,107.3,0.30921,245.66,117.01,302.94,0.29447,tetragonal,0,9.807658236,H4
mp-11190,VSi2,VSi2,175.33,345.41,147.4,0.17167,173.84,342.7,146.27,0.17144,174.59,146.84,344.05,0.17155,hexagonal,0,4.640041983,H4
mp-7142,OsC,OsC,389.67,268.19,96.8,0.38529,377.99,145.44,50.645,0.43587,383.83,73.723,207.86,0.40974,hexagonal,0,16.34427304,H4
mp-17,Cr,Cr,250,314.35,121.8,0.29043,250,284.93,108.75,0.31004,250,115.28,299.75,0.30016,cubic,0,7.349657353,H1a
mp-865842,Ti2OsRu,Ti2OsRu,231.33,316.47,124.4,0.27199,231.33,305.43,119.32,0.27995,231.33,121.86,310.97,0.27596,cubic,0,10.8757919,H1a
mp-20648,V2C,V2C,244.44,307.3,119.07,0.29047,243.55,297.9,114.92,0.29614,243.99,116.99,302.61,0.29329,orthorhombic,0,5.741137786,H4
mp-988,Si3N4,Si3N4,234.67,318.02,124.8,0.27413,234.25,299.03,116.15,0.28724,234.46,120.48,308.58,0.28064,hexagonal,4.2577,3.134176877,H1b
mp-865507,VSiRu2,VSiRu2,253,297.34,114,0.30412,253,295.92,113.37,0.30506,253,113.69,296.63,0.30459,cubic,0,8.864955408,H1a
mp-550893,HfO2,HfO2,248.33,342.01,134.6,0.27046,248.33,255.22,96.039,0.32871,248.33,115.32,299.59,0.29894,cubic,3.912,10.69261991,H2
mp-12605,ReSi2,ReSi2,233.89,316.85,124.33,0.27421,231.84,301.71,117.57,0.28311,232.87,120.95,309.3,0.27863,tetragonal,0,10.01947557,H4
mp-14019,NiB,NiB,261.33,296.75,113.2,0.31074,256.94,287.71,109.53,0.31337,259.14,111.37,292.23,0.31205,orthorhombic,0,7.165930276,H4
mp-977561,LiTaIr2,LiTaIr2,269.33,290.46,110,0.32026,269.33,280.48,105.73,0.32643,269.33,107.86,285.48,0.32334,cubic,0,16.2093949,H1a
mp-867507,TaGaFe2,TaGaFe2,224.33,314.98,124.4,0.26599,224.33,313.44,123.68,0.26713,224.33,124.04,314.21,0.26656,cubic,0.0603,11.79944786,H5
mp-416,Cr3Os,Cr3Os,281.67,276.86,103.6,0.33618,281.67,276.77,103.56,0.33623,281.67,103.58,276.81,0.33621,cubic,0,11.4489665,H1a
mp-776475,Al2O3,Al2O3,215.33,320.5,128,0.25194,215.33,317.12,126.39,0.25455,215.33,127.19,318.81,0.25324,cubic,5.2158,3.745220877,H2
mp-1018061,FeH3,FeH3,206.67,328.53,133,0.23506,206.67,319.09,128.39,0.24267,206.67,130.7,323.82,0.23885,cubic,0,5.488269152,H1a
mp-540809,Zr2Fe12P7,Zr2Fe12P7,216.11,320.41,127.87,0.2529,216.01,315.69,125.63,0.25643,216.06,126.75,318.05,0.25466,hexagonal,0,7.290370194,H4
mp-1542,YB2,YB2,163.44,347.16,151.47,0.146,163.44,345.56,150.56,0.14762,163.44,151.01,346.36,0.14681,hexagonal,0,5.045298476,H4
mp-22787,Fe2Si,Fe2Si,236.44,312.87,122.27,0.27946,236.31,297.86,115.46,0.28992,236.38,118.86,305.4,0.28467,trigonal,0,7.173066809,H2
mp-996,OsO2,OsO2,288.33,336.78,129,0.30533,273.96,212.2,77.396,0.3709,281.14,103.2,275.84,0.33648,tetragonal,0,11.22797562,H4
mp-865501,V2TcRu,V2TcRu,254.67,294.41,112.6,0.30732,254.67,291.72,111.42,0.30908,254.67,112.01,293.07,0.3082,cubic,0,9.088845073,H1a
mp-865989,Al2IrRu,Al2IrRu,219.33,315.13,125,0.26054,219.33,315.11,124.99,0.26056,219.33,124.99,315.12,0.26055,cubic,0,10.57596406,H1a
mp-866375,TiFe2Ge,TiFe2Ge,214.33,317.74,126.8,0.25292,214.33,317.74,126.8,0.25292,214.33,126.8,317.74,0.25292,cubic,0.164,7.947002717,H5
mp-20685,Cr3Ge,Cr3Ge,210.67,320.98,128.8,0.24606,210.67,318.28,127.5,0.2482,210.67,128.15,319.63,0.24713,cubic,0,7.860403851,H1a
mp-8218,PrAlO3,PrAlO3,194.33,333.98,137.6,0.21357,194.33,323.26,132.19,0.22276,194.33,134.89,328.64,0.21815,cubic,2.9568,6.583908721,H2
mp-867835,BeSiRu2,BeSiRu2,223,311.69,123,0.26705,223,311.67,122.99,0.26707,223,122.99,311.68,0.26706,cubic,0,8.427571445,H1a
mp-12108,VPt2,VPt2,246.56,314.03,121.93,0.28772,245.93,279.76,106.75,0.3104,246.24,114.34,297.04,0.29895,orthorhombic,0,16.53793421,H4
mp-875,AlOs,AlOs,236,313.08,122.4,0.2789,236,293.3,113.43,0.29287,236,117.92,303.24,0.28585,cubic,0,13.12163937,H1a
mp-865484,V2CrRe,V2CrRe,250.67,300.59,115.6,0.30014,250.67,286.89,109.56,0.30925,250.67,112.58,293.76,0.30468,cubic,0,10.6185528,H1a
mp-22488,Co2C,Co2C,257.56,294.68,112.53,0.30931,257.1,284,107.91,0.3159,257.33,110.22,289.35,0.31259,orthorhombic,0,7.854354165,H4
mp-20436,TaSiRh,TaSiRh,235.44,309.62,120.87,0.28083,235.15,296.88,115.11,0.28958,235.3,117.99,303.27,0.28519,orthorhombic,0,11.65452093,H4
mp-1609,Cr3Ir,Cr3Ir,276,282.38,106.2,0.32948,276,271.07,101.42,0.33631,276,103.81,276.74,0.33289,cubic,0,11.50262073,H1a
mp-33137,TcO2,TcO2,256.44,323.62,125.47,0.28967,255.59,255.15,95.661,0.33362,256.02,110.56,289.95,0.31124,monoclinic,0,6.580346998,H4
mp-5714,TmCo3B2,TmCo3B2,220.44,317.22,125.87,0.26016,220.44,306.96,121.05,0.26792,220.44,123.46,312.11,0.26403,hexagonal,0,9.470211591,H4
mp-21883,VGaFe2,VGaFe2,224.67,310.33,122.2,0.26978,224.67,308.67,121.43,0.27101,224.67,121.81,309.5,0.2704,cubic,0,8.260081174,H1a
mp-19094,VO2,VO2,233.67,327.28,129.2,0.26656,232.02,280.61,108.06,0.29843,232.84,118.63,304.22,0.28224,tetragonal,0,4.446943636,H4
mp-569594,Fe7Mo6,Fe7Mo6,252.78,295.19,113.07,0.30537,248.79,290.01,111.05,0.30572,250.79,112.06,292.6,0.30555,trigonal,0,9.614101542,H2
mp-5659,Ti3SiC2,Ti3SiC2,184.22,333.07,138.93,0.19867,184.22,331.88,138.31,0.19975,184.22,138.62,332.48,0.19921,hexagonal,0,4.47490817,H4
mp-259,AlMo3,AlMo3,225,314.7,124.2,0.26689,225,302.92,118.74,0.27561,225,121.47,308.83,0.27124,cubic,0,8.470007673,H1a
mp-21449,NbCoP,NbCoP,238.33,302.97,117.6,0.28813,238.25,297.91,115.33,0.2916,238.29,116.46,300.44,0.28986,orthorhombic,0,7.877527183,H4
mp-12979,SnO2,SnO2,260.67,356.66,140.2,0.27196,260.67,210.01,76.886,0.36572,260.67,108.54,285.94,0.31717,cubic,0.4513,7.33594662,H5
mp-977283,MgRe3,MgRe3,286.33,288.29,108.2,0.3322,286.33,248.73,91.766,0.35522,286.33,99.983,268.68,0.34361,cubic,0,16.01975277,H1a
mp-862669,BeFe2Si,BeFe2Si,223,320.64,127.2,0.26036,223,298.68,116.97,0.27677,223,122.08,309.73,0.26851,cubic,0,6.269390928,H1a
mp-11515,NbRh,NbRh,217.67,157.78,57.2,0.37919,217.49,443.07,190.9,0.16046,217.58,124.05,312.72,0.26045,orthorhombic,0,10.07624901,H4
mp-1474,Re3P4,Re3P4,188,337.63,140.6,0.20068,185.45,323.09,133.55,0.20963,186.72,137.08,330.38,0.20511,monoclinic,0,10.95174237,H4
mp-14254,NdAlO3,NdAlO3,185.67,334.87,139.6,0.1994,185.67,326.48,135.25,0.20693,185.67,137.43,330.69,0.20315,cubic,2.9421,6.770854568,H2
mp-568121,Mn4Si7,Mn4Si7,192.89,327.07,134.33,0.21739,192.8,325.56,133.58,0.21858,192.85,133.96,326.31,0.21798,orthorhombic,0.8098,5.259800312,H2
mp-865717,Ti2ReIr,Ti2ReIr,235.67,302.04,117.4,0.28639,235.67,299.12,116.08,0.28846,235.67,116.74,300.58,0.28742,cubic,0,13.0653477,H1a
mp-3464,FeSiRu2,FeSiRu2,237,300.07,116.4,0.28898,237,299.16,115.99,0.28962,237,116.19,299.62,0.2893,cubic,0,9.193008985,H1a
mp-999086,TcN,TcN,250.78,316.41,122.67,0.28971,217.36,285.44,111.4,0.28113,234.07,117.04,300.95,0.28571,tetragonal,0,8.22283268,H4
mp-3805,Al(FeB)2,Al(FeB)2,206.33,324.76,131.2,0.23767,199.47,314.31,127.01,0.23738,202.9,129.1,319.54,0.23753,orthorhombic,0,5.791994059,H4
mp-22434,HfFeP,HfFeP,212.89,316.83,126.53,0.25196,212.63,309.96,123.29,0.25705,212.76,124.91,313.4,0.2545,orthorhombic,0,10.75533542,H4
mp-1001602,B12W,B12W,238.33,367.44,147.8,0.24305,238.33,221.2,82.209,0.34532,238.33,115,297.21,0.29216,cubic,0,5.274712326,H1a
mp-10037,AlCo3C,AlCo3C,234,310.07,121.2,0.27915,234,289.28,111.78,0.29396,234,116.49,299.73,0.28651,cubic,0,6.944422257,H1a
mp-867878,AlFe2Si,AlFe2Si,215.67,313.44,124.6,0.25778,215.67,308.6,122.32,0.26151,215.67,123.46,311.02,0.25964,cubic,0,6.289050137,H1a
mp-568991,Hf2Al4C5,Hf2Al4C5,192.33,326.24,134,0.2173,191.4,323.25,132.64,0.21852,191.87,133.32,324.74,0.21791,trigonal,0,6.632535267,H2
mp-5353,ErCo3B2,ErCo3B2,217.22,314.51,124.93,0.25869,217.01,305.21,120.58,0.2656,217.12,122.76,309.87,0.26213,hexagonal,0,9.378277254,H4
mp-2723,IrO2,IrO2,276.78,324.72,124.47,0.30446,263.81,224.75,82.751,0.35801,270.29,103.61,275.61,0.33005,tetragonal,0,11.30226873,H4
mp-19091,CrO,CrO,184,414.34,184.2,0.12469,184,229.77,88.93,0.29187,184,136.57,328.44,0.2025,cubic,0,5.121741419,H1a