Material_ID,Formula,pretty_formula,KV ,EV ,GV ,PV ,KR ,ER ,GR ,PR ,bulk,shear,young,poisson,csyst,gap,density,y_cla
mp-2619,FeSb,FeSb,95.556,147.06,59.133,0.24349,91.445,124.78,49.028,0.27257,93.5,54.081,136.02,0.25754,hexagonal,0,8.417664523,H4
mp-973865,PaAl3,PaAl3,91.667,138.75,55.6,0.24773,91.667,135.45,54.017,0.25373,91.667,54.809,137.1,0.25073,cubic,0,6.485036552,H1a
mp-809,ThCo5,ThCo5,131.56,115.19,42.533,0.35407,129.52,108.46,39.862,0.36044,130.54,41.198,111.83,0.35722,hexagonal,0,10.28785121,H4
mp-5605,Ce(SiAg)2,Ce(SiAg)2,93.111,138.41,55.267,0.25224,93.013,134.06,53.209,0.25978,93.062,54.238,136.25,0.256,tetragonal,0,7.094498185,H4
mp-19214,CeVO4,CeVO4,122,134.75,51.2,0.31592,113.18,106.09,39.473,0.34378,117.59,45.336,120.52,0.32918,tetragonal,0,4.831243405,H4
mp-339,UMn2,UMn2,135.33,108.74,39.8,0.36608,134.9,108.32,39.644,0.36617,135.12,39.722,108.53,0.36613,cubic,0,13.10856336,H1a
mp-2361,Hf5Al3,Hf5Al3,111.67,125.95,48,0.31201,110.06,123.85,47.181,0.31246,110.86,47.591,124.9,0.31223,hexagonal,0,9.934060354,H4
mp-19973,LaCoGe3,LaCoGe3,96.667,134.43,53,0.26822,96.508,133.51,52.587,0.26943,96.587,52.793,133.97,0.26883,tetragonal,0,7.320617783,H4
mp-21104,Hf5Sn3,Hf5Sn3,113.44,129.57,49.467,0.30965,112.94,117.06,44.099,0.32726,113.19,46.783,123.35,0.31837,hexagonal,0,11.68748396,H4
mp-10528,Ho2AlSi2,Ho2AlSi2,85.444,146.38,60.267,0.21447,82.877,136.12,55.502,0.22626,84.161,57.884,141.27,0.22025,orthorhombic,0,6.760961617,H4
mp-1025554,PrSi2Ag,PrSi2Ag,88.556,140.25,56.733,0.23604,87.576,137.71,55.623,0.23792,88.066,56.178,138.98,0.23697,orthorhombic,0,6.29736857,H4
mp-20725,PbO2,PbO2,122.22,141.05,53.933,0.30766,111.01,100.46,37.228,0.34918,116.62,45.581,120.98,0.3271,tetragonal,0.0132,8.918867085,H1a
mp-20887,VSn2,VSn2,98.222,134.19,52.733,0.27231,98.021,131.42,51.473,0.27655,98.122,52.103,132.8,0.27442,orthorhombic,0,7.770844172,H4
mp-21007,SmSnPt,SmSnPt,103.67,131,50.8,0.28939,103.67,127.54,49.244,0.29496,103.67,50.022,129.27,0.29216,hexagonal,0,11.25601408,H4
mp-623,HgPt,HgPt,146.89,102.74,37.133,0.38342,146.88,97.214,34.977,0.38969,146.89,36.055,99.984,0.38655,tetragonal,0,18.02197124,H4
mp-567982,TaSn2,TaSn2,103.22,132.1,51.333,0.2867,102.61,127.3,49.22,0.29322,102.92,50.277,129.71,0.28994,orthorhombic,0,10.17019194,H4
mp-2133,ZnO,ZnO,129.67,113.23,41.8,0.35446,129.67,110.65,40.746,0.35778,129.67,41.273,111.94,0.35612,hexagonal,0.7316,5.437864583,H1a
mp-20465,As2Pd,As2Pd,106.67,135.52,52.6,0.28824,106.67,118.43,45.033,0.31495,106.67,48.816,127.06,0.30146,cubic,0,7.549097307,H1a
mp-9125,Ca(SbO3)2,Ca(SbO3)2,116.33,136.22,52.2,0.30484,93.032,120.34,46.848,0.28441,104.68,49.524,128.33,0.29568,trigonal,2.7317,5.036654903,H2
mp-1029726,Li6IrN4,Li6IrN4,82.333,142.87,59,0.21078,81.112,141.32,58.412,0.20963,81.723,58.706,142.09,0.21021,tetragonal,0,4.338291588,H4
mp-866024,Be2RhAu,Be2RhAu,153,127.41,46.8,0.36121,153,61.571,21.484,0.43293,153,34.142,95.335,0.39615,cubic,0,11.21977116,H1a
mp-862553,Sc2BeRu,Sc2BeRu,111,129.96,49.8,0.30486,111,118.21,44.691,0.32251,111,47.246,124.13,0.31362,cubic,0,5.06329457,H1a
mp-976284,EuSbO3,EuSbO3,99,134.49,52.8,0.27358,99,129.05,50.303,0.28274,99,51.552,131.78,0.27815,cubic,0,7.115493196,H1a
mp-1317,CoSb3,CoSb3,85,142.16,58.2,0.22126,85,138.11,56.178,0.2292,85,57.189,140.14,0.22522,cubic,0.5821,7.440822331,H5
mp-46,Ti,Ti,112.78,123.49,46.867,0.3175,112.75,122.24,46.327,0.3193,112.76,46.597,122.87,0.3184,hexagonal,0,4.579441526,H4
mp-5486,Ca(CuSi)2,Ca(CuSi)2,93.111,138,55.067,0.25299,92.187,133.17,52.876,0.25924,92.649,53.971,135.59,0.25609,tetragonal,0,4.549074982,H4
mp-549706,MgO,MgO,115,127.34,48.4,0.31546,108.9,119.39,45.317,0.31729,111.95,46.858,123.36,0.31635,hexagonal,3.2865,2.757528276,H1b
mp-19876,InNi,InNi,103,131.32,51,0.2875,102.98,126.89,49.008,0.29463,102.99,50.004,129.12,0.29106,hexagonal,0,8.211460739,H4
mp-4867,CaAl4O7,CaAl4O7,114.44,129.71,49.467,0.3111,114,113.78,42.658,0.33365,114.22,46.062,121.81,0.32226,monoclinic,3.9994,2.813028576,H2
mp-21272,ErNiSb,ErNiSb,81.667,143.04,59.2,0.20809,81.667,140.62,57.962,0.21302,81.667,58.581,141.83,0.21055,cubic,0.3312,9.191794524,H5
mp-1029396,SrHfN2,SrHfN2,115.89,138.72,53.333,0.3005,115.45,102.17,37.771,0.3525,115.67,45.552,120.8,0.32594,tetragonal,1.5457,7.206595769,H1a
mp-570196,Zr5Sb4,Zr5Sb4,106.67,128.38,49.4,0.2994,106.62,125.01,47.913,0.30458,106.64,48.657,126.7,0.30199,hexagonal,0,7.73912168,H4
mp-1018636,SnPd3C,SnPd3C,131.11,112.54,41.467,0.35695,131.11,107.97,39.616,0.36274,131.11,40.542,110.26,0.35984,cubic,0,9.714029519,H1a
mp-865441,TiAlPd2,TiAlPd2,165.67,112.6,40.6,0.38672,165.67,57.861,20.066,0.44179,165.67,30.333,85.764,0.41372,cubic,0,7.796983911,H1a
mp-5982,La(NiAs)2,La(NiAs)2,114.67,137.32,52.8,0.3004,101.9,113.57,43.207,0.31425,108.28,48.004,125.47,0.30688,tetragonal,0,7.751224359,H4
mp-288,PtS,PtS,168.89,110.02,39.533,0.39143,142.65,75.448,26.72,0.41185,155.77,33.126,92.801,0.40071,tetragonal,0.4714,9.865040708,H1a
mp-7753,MgPd3,MgPd3,139.67,121.42,44.8,0.35511,139.67,86.287,30.882,0.39703,139.67,37.841,104.12,0.37575,cubic,0,9.077194764,H1a
mp-570452,Y(SiAu)2,Y(SiAu)2,117.11,125.45,47.467,0.32146,114.7,115.25,43.246,0.33252,115.9,45.356,120.37,0.32691,tetragonal,0,9.540822013,H4
mp-2472,SrO,SrO,87.333,138.42,56,0.23585,87.333,138.2,55.895,0.23626,87.333,55.947,138.31,0.23605,cubic,3.4487,4.877526424,H2
mp-30871,Ta3Sn,Ta3Sn,178.67,78.202,27.4,0.42705,178.67,74.246,25.947,0.43074,178.67,26.673,76.227,0.42889,cubic,0,14.54767436,H1a
mp-11392,TmGa2Pd,TmGa2Pd,103.78,135.14,52.667,0.28297,101.62,122.61,47.199,0.2989,102.7,49.933,128.91,0.2908,orthorhombic,0,9.386343772,H4
mp-973185,ScAgO2,ScAgO2,133.89,137.49,51.733,0.32885,129.47,80.319,28.755,0.39661,131.68,40.244,109.57,0.36132,trigonal,2.1269,5.39167515,H2
mp-766217,Sr4Cu2O7,Sr4Cu2O7,96.444,136.24,53.867,0.26457,94.062,130.73,51.537,0.26835,95.253,52.702,133.49,0.26643,monoclinic,0.7851,5.240139533,H4
mp-18724,Sr2CoO4,Sr2CoO4,112.44,39.404,13.667,0.4416,112.86,192.35,79.093,0.21596,112.65,46.38,122.35,0.31899,tetragonal,0,5.224029484,H4
mp-20847,Ti5Sn3,Ti5Sn3,107.22,131.47,50.733,0.29565,106.44,120.75,46.055,0.31093,106.83,48.394,126.14,0.30322,hexagonal,0,6.42521488,H4
mp-7859,ZrS,ZrS,121.78,142.65,54.667,0.30476,117.11,91.779,33.511,0.36938,119.44,44.089,117.78,0.33566,tetragonal,0,5.636888813,H4
mp-10154,MnSbIr,MnSbIr,132.33,110.01,40.4,0.36145,132.33,107.94,39.567,0.36405,132.33,39.983,108.98,0.36275,cubic,0,10.71106363,H1a
mp-8672,La2PdO4,La2PdO4,141.78,130.53,48.467,0.34656,137.29,76.043,27.01,0.40769,139.54,37.738,103.85,0.37595,tetragonal,0,7.0205141,H4
mp-979294,SrAgO3,SrAgO3,112,132.84,51,0.30233,112,112.12,42.05,0.33316,112,46.525,122.6,0.31756,cubic,0,5.822637137,H1a
mp-558852,FeF3,FeF3,104.33,152.73,60.8,0.25602,104.33,100.63,37.57,0.33925,104.33,49.185,127.52,0.2963,cubic,2.9725,3.133077466,H2
mp-1025390,LaSi2Ag,LaSi2Ag,89.444,139.95,56.467,0.23922,86.256,135.3,54.621,0.23856,87.85,55.544,137.63,0.2389,orthorhombic,0,6.097876334,H4
mp-1025140,USiSe,USiSe,83.889,149.88,62.333,0.20223,76.878,133.75,55.267,0.21004,80.383,58.8,141.82,0.20595,tetragonal,0,9.155975784,H4
mp-11259,TiAu,TiAu,137,126.05,46.8,0.34666,137,84.197,30.123,0.39757,137,38.461,105.51,0.37164,cubic,0,11.53235658,H1a
mp-19356,YbMnO3,YbMnO3,115.78,127.6,48.467,0.31632,110.99,115.42,43.499,0.32668,113.38,45.983,121.52,0.32137,hexagonal,0,7.344154768,H4
mp-30208,YCuP2,YCuP2,104.78,133.12,51.667,0.28825,104.35,121.31,46.435,0.30624,104.56,49.051,127.25,0.29717,tetragonal,0,5.245981805,H4
mp-973269,SbTeO3,SbTeO3,185,72.316,25.2,0.43485,185,69.761,24.27,0.43715,185,24.735,71.039,0.436,cubic,0,6.794326249,H1a
mp-1877,HoAl3,HoAl3,77.333,143.39,60.2,0.19097,77.333,143.17,60.082,0.19145,77.333,60.141,143.28,0.19121,cubic,0,5.332694167,H1a
mp-865403,Tm2MgGe2,Tm2MgGe2,82.556,145.16,60.133,0.20695,82.44,135.61,55.313,0.22584,82.498,57.723,140.42,0.21632,tetragonal,0,7.753089388,H4
mvc-15452,YMoO3,YMoO3,164,154.69,57.6,0.34279,164,9.8403,3.3021,0.49,164,30.451,86.029,0.41257,cubic,0,5.658682029,H1a
mp-1018033,AgRhO2,AgRhO2,141.89,124.87,46.133,0.35333,132.51,84.641,30.369,0.39354,137.2,38.251,105,0.37245,trigonal,0.5085,7.55834099,H2
mp-21366,Yb(GeRu)2,Yb(GeRu)2,103.89,130.45,50.533,0.29072,103.44,124.61,47.955,0.29922,103.66,49.244,127.54,0.29495,tetragonal,0,9.522993583,H4
mp-976872,NaNi3,NaNi3,103.33,134.47,52.4,0.28311,103.33,120.89,46.316,0.30502,103.33,49.358,127.74,0.29397,cubic,0,6.508977778,H1a
mp-1016820,MgSnO3,MgSnO3,66.333,157.96,71.6,0.1031,66.333,138.22,59.953,0.15272,66.333,65.776,148.31,0.12737,cubic,0.8455,4.863389811,H5
mp-11366,ZrZnCu2,ZrZnCu2,122,124.48,46.8,0.32994,122,106.18,39.181,0.35495,122,42.991,115.42,0.34233,cubic,0,7.826255941,H1a
mp-600561,LiRh,LiRh,114.22,148.67,57.933,0.28308,101.89,99.987,37.408,0.33644,108.06,47.671,124.68,0.3077,hexagonal,0,6.727331089,H4
mp-755302,TiNbO4,TiNbO4,175,89.952,31.8,0.41433,149.79,84.243,29.953,0.40627,162.4,30.876,87.109,0.4106,tetragonal,0,4.416738251,H4
mp-1008568,ZrTi2,ZrTi2,105.56,128.05,49.333,0.29781,105.49,124.44,47.735,0.3034,105.52,48.534,126.25,0.3006,hexagonal,0,5.330206705,H4
mp-985626,Na3Mn2SbO6,Na3Mn2SbO6,99.556,137.05,53.933,0.27056,95.086,125.78,49.153,0.27952,97.321,51.543,131.43,0.27492,monoclinic,0.8572,4.49303359,H4
mp-8873,LiGeBO4,LiGeBO4,73.889,149.59,64.333,0.16259,73.863,139.75,58.985,0.18465,73.876,61.659,144.72,0.17352,tetragonal,4.7012,3.52505064,H4
mp-1018164,PtC,PtC,209.33,63.206,21.8,0.44968,209.33,42.285,14.419,0.46633,209.33,18.109,52.805,0.45796,cubic,0,13.00236839,H1a
mp-30774,MgNi2Sn,MgNi2Sn,114.33,141.75,54.8,0.29336,114.33,98.014,36.111,0.35712,114.33,45.456,120.41,0.32448,cubic,0,7.384300813,H1a
mp-5478,TlPd3O4,TlPd3O4,141,102.58,37.2,0.37875,141,101.75,36.872,0.37973,141,37.036,102.16,0.37924,cubic,1.1514,8.399833134,H5
mp-19724,Cu3Ge,Cu3Ge,123.11,114.74,42.667,0.34466,123.02,114.3,42.486,0.34515,123.07,42.576,114.52,0.34491,orthorhombic,0,8.550046004,H4
mp-569496,Ce(SiAu2)2,Ce(SiAu2)2,146.56,110.83,40.333,0.37396,137.3,92.006,33.136,0.38832,141.93,36.735,101.45,0.38087,orthorhombic,0,12.3048326,H4
mp-973353,SbPt3,SbPt3,201,95.48,33.6,0.42083,201,20.533,6.9231,0.48297,201,20.262,58.809,0.45124,cubic,0,16.9799896,H1a
mp-193,Zr2Cu,Zr2Cu,109.33,129.25,49.6,0.30297,109.23,117.81,44.616,0.32025,109.28,47.108,123.57,0.31155,tetragonal,0,6.968518148,H4
mp-9389,HoCuGe,HoCuGe,91.778,147.52,59.867,0.2321,78.201,129.5,52.902,0.224,84.989,56.384,138.52,0.22836,hexagonal,0,8.888721656,H4
mp-972899,Sc2GaIr,Sc2GaIr,122.33,124.99,47,0.32971,122.33,104.43,38.456,0.35773,122.33,42.728,114.82,0.34357,cubic,0,8.17205711,H1a
mp-422,BeS,BeS,80.667,148.45,62.2,0.19329,80.667,133.11,54.331,0.22498,80.667,58.265,140.88,0.20893,cubic,3.2356,2.355668427,H2
mp-22389,Mn3Sn,Mn3Sn,90.222,138.24,55.533,0.24464,88.924,133.29,53.309,0.25018,89.573,54.421,135.77,0.24738,hexagonal,0,7.724735157,H4
mp-11457,HfRh,HfRh,178.67,99.092,35.2,0.40756,178.67,49.796,17.129,0.45355,178.67,26.165,74.841,0.43019,cubic,0,13.27764394,H1a
mp-1526,TiHg,TiHg,104,136.79,53.4,0.28079,103.95,116.46,44.34,0.31327,103.97,48.87,126.75,0.29682,tetragonal,0,10.8460939,H4
mp-999096,Ti2AlCr,Ti2AlCr,104.33,139.91,54.8,0.27651,104.33,112.41,42.566,0.32043,104.33,48.683,126.39,0.2981,cubic,0,4.639004766,H1a
mp-862363,Sc2PdPt,Sc2PdPt,126.33,113.92,42.2,0.34972,126.33,109.56,40.412,0.35547,126.33,41.306,111.74,0.35259,cubic,0,8.977606886,H1a
mp-867233,Sc2ZnIr,Sc2ZnIr,118.67,122.21,46,0.32836,118.67,111.55,41.519,0.34333,118.67,43.759,116.91,0.3358,cubic,0,8.160249354,H1a
mp-21249,YMnSi,YMnSi,91.667,145.33,58.8,0.23577,86.392,126.16,50.2,0.25661,89.03,54.5,135.79,0.24579,tetragonal,0,5.172535189,H4
mp-6326,LiAlSiO4,LiAlSiO4,113.67,125.31,47.6,0.31626,113.04,115.5,43.43,0.32971,113.35,45.515,120.43,0.32293,hexagonal,4.8474,2.271590255,H1b
mp-21400,Ga3Pt2,Ga3Pt2,131.89,109.31,40.133,0.36186,130.41,107.42,39.415,0.36271,131.15,39.774,108.37,0.36228,trigonal,0,11.7095421,H2
mp-2163,HoRh,HoRh,120.67,116.74,43.6,0.33876,120.67,114.31,42.586,0.34211,120.67,43.093,115.53,0.34043,cubic,0,11.16058575,H1a
mp-866173,Y2RuRh,Y2RuRh,108.33,125.92,48.2,0.30627,108.33,121.51,46.272,0.31306,108.33,47.236,123.72,0.30965,cubic,0,7.87645595,H1a
mp-803,DyAl2,DyAl2,79.333,141.84,59,0.20202,79.333,140.66,58.39,0.20449,79.333,58.695,141.25,0.20326,cubic,0,5.90822165,H1a
mp-6926,Ca(PPd)2,Ca(PPd)2,113.56,124.21,47.133,0.31769,111.28,117.83,44.512,0.32353,112.42,45.823,121.02,0.32057,tetragonal,0,6.145575875,H4
mp-755000,LiTiO2,LiTiO2,130.67,167.26,65,0.28665,127.27,45.643,15.846,0.44023,128.97,40.423,109.8,0.35811,hexagonal,0,3.859525481,H4
mp-14628,ZnSnO3,ZnSnO3,147.44,134.93,50.067,0.34748,140.87,61.535,21.558,0.4272,144.16,35.812,99.221,0.38529,trigonal,1.3304,6.456458301,H2
mp-28549,Li8SiO6,Li8SiO6,81.333,140.58,58,0.21192,81.307,139.62,57.515,0.21379,81.32,57.758,140.1,0.21286,hexagonal,4.4497,2.166771002,H1b
mp-7480,RbLuO2,RbLuO2,93.333,142.9,57.4,0.24481,91.931,123.91,48.577,0.27536,92.632,52.989,133.51,0.25979,trigonal,3.6905,7.34933035,H2
mp-571030,TlPd3,TlPd3,133.22,119.23,44.133,0.35083,132.94,94.288,34.118,0.38179,133.08,39.126,106.9,0.36612,tetragonal,0,12.76041459,H4
mp-768,TmAl3,TmAl3,77.333,142.26,59.6,0.19342,77.333,142.13,59.536,0.19368,77.333,59.568,142.19,0.19355,cubic,0,5.511164219,H1a
mp-961693,ZrInAu,ZrInAu,112,126,48,0.3125,112,116.08,43.729,0.32726,112,45.865,121.07,0.31984,cubic,0.5016,9.634347777,H5
mp-3931,SmSF,SmSF,97.556,131.45,51.533,0.27542,97.542,129.15,50.478,0.27932,97.549,51.005,130.31,0.27737,tetragonal,0,6.364169787,H4
mp-4630,Li2RuO3,Li2RuO3,108.33,130.9,50.4,0.29861,107.07,116.63,44.23,0.31846,107.7,47.315,123.81,0.3084,monoclinic,0,4.872998067,H4
mp-3427,LiAlO2,LiAlO2,93.667,134.62,53.4,0.26047,93.08,130.99,51.758,0.26544,93.373,52.579,132.81,0.26294,tetragonal,4.5928,2.5300524,H4
mp-3359,Ba2SnO4,Ba2SnO4,96.222,132.47,52.133,0.27054,95.857,129.67,50.868,0.27455,96.04,51.5,131.07,0.27254,tetragonal,2.4906,6.334050864,H4
mp-1025322,V(CoSe2)2,V(CoSe2)2,92.333,137.67,55,0.25151,88.828,131.1,52.274,0.25401,90.581,53.637,134.39,0.25273,monoclinic,0,6.675855461,H4
mp-1260,SrPd5,SrPd5,109,124.65,47.6,0.3094,106.85,122.35,46.73,0.30915,107.93,47.165,123.5,0.30928,hexagonal,0,8.926366703,H4
mvc-3978,Ca2Co2O5,Ca2Co2O5,113.22,135.14,51.933,0.30107,107.5,108.41,40.697,0.33192,110.36,46.315,121.89,0.31592,orthorhombic,0,4.414726366,H4
mp-22033,Ti5Sb3,Ti5Sb3,111.67,124.57,47.4,0.31407,109.86,118.67,44.95,0.31997,110.76,46.175,121.62,0.31699,orthorhombic,0,6.533810806,H4
mp-569833,Zr2Ga,Zr2Ga,107.11,131.74,50.867,0.295,106.91,116.23,44.066,0.3188,107.01,47.466,124.06,0.30678,tetragonal,0,6.788351328,H4
mp-989533,NaTl2InF6,NaTl2InF6,129,110.73,40.8,0.35694,129,107.88,39.645,0.36061,129,40.223,109.31,0.35878,cubic,4.4559,6.364890925,H2
mp-4251,Pr(Sb3Os)4,Pr(Sb3Os)4,99.333,134.99,53,0.2735,99.333,122.73,47.421,0.29407,99.333,50.211,128.91,0.28371,cubic,0,9.38040265,H1a
mp-21474,Eu(MnP)2,Eu(MnP)2,92,141.73,57,0.24324,91.946,124.85,49.01,0.27369,91.973,53.005,133.39,0.25828,trigonal,0,6.44080872,H2
mp-1016931,VZnO3,VZnO3,178.33,85.759,30.2,0.41985,178.33,62.299,21.605,0.44178,178.33,25.902,74.119,0.43073,cubic,0,5.051436046,H1a
mp-22558,TiSi,TiSi,136.67,170.1,65.8,0.29256,127.34,36.588,12.598,0.45211,132,39.199,107.01,0.36489,orthorhombic,0,4.310433418,H4
mp-20997,InNi,InNi,125.33,122.48,45.8,0.33713,125.33,100.38,36.728,0.36652,125.33,41.264,111.55,0.35166,cubic,0,9.242256198,H1a
mp-20440,MnNi2Sn,MnNi2Sn,146,142.79,53.4,0.337,146,47.802,16.535,0.44543,146,34.968,97.147,0.3891,cubic,0,8.731592943,H1a
mp-13070,Sc2AlC,Sc2AlC,86.333,140.16,57,0.22943,86.297,132.88,53.436,0.24337,86.315,55.218,136.54,0.23636,hexagonal,0,3.024334287,H4
mp-999257,Sc2MnC,Sc2MnC,115.67,120.44,45.4,0.32645,115.67,115.53,43.317,0.33353,115.67,44.359,117.99,0.32998,cubic,0,4.751939891,H1a
mp-867859,Sm2IrRu,Sm2IrRu,125.67,111.42,41.2,0.35222,125.67,111,41.028,0.35278,125.67,41.114,111.21,0.3525,cubic,0,11.65962568,H1a
mp-1022725,Sn,Sn,93.333,133.69,53,0.26126,93.333,130.92,51.699,0.26621,93.333,52.35,132.31,0.26373,cubic,0,7.070643473,H1a
mp-5618,Mg2As2O7,Mg2As2O7,107.11,129.95,50.067,0.29779,101.61,120.82,46.403,0.30182,104.36,48.235,125.39,0.29975,monoclinic,3.058,3.799747514,H2
mp-7936,LiNbS2,LiNbS2,84.222,141.38,57.933,0.22022,80.942,135.8,55.64,0.22037,82.582,56.787,138.59,0.22029,hexagonal,0.806,4.242441212,H1a
mp-541840,DyC2,DyC2,119.89,167.59,66.133,0.26703,111.51,63.294,22.518,0.4054,115.7,44.326,117.92,0.33014,tetragonal,0,7.397959545,H4
mp-976799,Ni3Bi,Ni3Bi,135.67,106.27,38.8,0.36945,135.67,102.22,37.185,0.37443,135.67,37.992,104.25,0.37193,cubic,0,11.45259087,H1a
mp-1249,MgF2,MgF2,95.111,139.32,55.467,0.25587,94.249,123.3,48.092,0.28196,94.68,51.779,131.39,0.26872,tetragonal,6.832,3.034476004,H4
mp-27226,MgCu2O3,MgCu2O3,100.33,142.5,56.4,0.26329,85.746,122.25,48.42,0.26238,93.04,52.41,132.37,0.26287,orthorhombic,0,5.332294342,H4
mp-17092,ScSnPd,ScSnPd,103.33,130.06,50.4,0.29023,100.11,123.8,47.841,0.29389,101.72,49.121,126.93,0.29203,hexagonal,0,7.535038906,H4
mp-755328,ZrSn2,ZrSn2,88,142.66,58,0.22981,84.583,130,52.255,0.24385,86.291,55.128,136.35,0.23665,orthorhombic,0,7.85190591,H4
mp-4652,MnRh2Pb,MnRh2Pb,106.33,132.36,51.2,0.29254,106.33,115.3,43.699,0.31928,106.33,47.449,123.92,0.30577,cubic,0,11.77378354,H1a
mp-1423,HoC2,HoC2,116.89,169.88,67.533,0.25777,109.36,63.578,22.656,0.40311,113.12,45.095,119.42,0.32406,tetragonal,0,7.635540512,H4
mp-865039,HfTc2Sn,HfTc2Sn,154.67,121.07,44.2,0.36954,154.67,58.696,20.427,0.43675,154.67,32.313,90.629,0.40234,cubic,0,11.81875649,H1a
mp-20695,Zr3In,Zr3In,97,137.92,54.6,0.26302,97,121.43,47.015,0.29136,97,50.807,129.77,0.27703,cubic,0,7.182073165,H1a
mp-1571,PrPd3,PrPd3,103.33,127.83,49.4,0.29382,103.33,123.57,47.5,0.3007,103.33,48.45,125.7,0.29725,cubic,0,10.11375628,H1a
mp-862861,Pa3Si,Pa3Si,110.67,162.23,64.6,0.25567,110.67,75.298,27.152,0.3866,110.67,45.876,120.92,0.31789,cubic,0,13.61447374,H1a
mp-27731,HfH2,HfH2,150.22,113.08,41.133,0.37454,147.83,75.407,26.646,0.41498,149.03,33.89,94.505,0.39431,tetragonal,0,11.4656478,H4
mp-760408,LiZnO2,LiZnO2,99.778,131.75,51.467,0.27993,95.251,126.91,49.653,0.27794,97.514,50.56,129.33,0.27896,tetragonal,0,4.603220267,H4
mp-976330,LiZr2Ir,LiZr2Ir,146,96.716,34.8,0.38959,146,96.553,34.737,0.38978,146,34.768,96.634,0.38969,cubic,0,8.747893135,H1a
mp-1018149,ScCu2,ScCu2,116.33,127.98,48.6,0.31665,114.28,107.29,39.929,0.34352,115.31,44.264,117.73,0.32983,tetragonal,0,6.252104019,H4
mp-7818,Pd4Se,Pd4Se,138.89,103.3,37.533,0.37605,138.65,99.927,36.209,0.37988,138.77,36.871,101.61,0.37796,tetragonal,0,10.2963333,H4
mp-11350,CaAl9Co2,CaAl9Co2,84.667,138.05,56.2,0.22824,84.189,135.99,55.248,0.23077,84.428,55.724,137.03,0.2295,hexagonal,0,3.19726442,H4
mp-559798,NiF2,NiF2,129.11,120.63,44.867,0.34429,126.88,97.223,35.424,0.37229,127.99,40.145,109.04,0.35802,tetragonal,4.9116,4.655344723,H4
mp-5167,Sm(NiGe)2,Sm(NiGe)2,109.33,125.16,47.8,0.30921,108.83,118.31,44.853,0.31881,109.08,46.326,121.74,0.31398,tetragonal,0,8.234821664,H4
mp-865788,TmPaTc2,TmPaTc2,125.67,118.69,44.2,0.34259,125.67,102.35,37.51,0.36426,125.67,40.855,110.58,0.35334,cubic,0,12.50241018,H1a
mp-36526,AcOF,AcOF,107.67,123.55,47.2,0.30875,107.67,121.68,46.386,0.31164,107.67,46.793,122.62,0.31019,cubic,4.2844,8.15473506,H2
mp-33029,Nd2O3,Nd2O3,111,149.93,58.8,0.27489,111,88.798,32.487,0.36667,111,45.644,120.42,0.31918,cubic,1.3594,6.126903271,H5
mp-7497,ThSi2,ThSi2,106.56,136.24,52.933,0.2869,106.01,110.27,41.562,0.32662,106.28,47.248,123.45,0.30641,hexagonal,0,7.792527656,H4
mp-2740,ErCo5,ErCo5,143.89,108.65,39.533,0.37415,135.3,92.947,33.543,0.3855,139.59,36.538,100.82,0.37963,hexagonal,0,9.362230695,H4
mp-570276,ZrZn,ZrZn,107.67,135.7,52.6,0.28994,107.67,108.91,40.899,0.33141,107.67,46.749,122.52,0.31035,cubic,0.0231,6.949384388,H5
mp-568,TiSb2,TiSb2,89.444,137.07,55.067,0.24459,88.265,131.47,52.514,0.25175,88.855,53.79,134.28,0.24814,tetragonal,0,7.376419408,H4
mp-867278,DyPaTc2,DyPaTc2,121.67,121.13,45.4,0.33406,121.67,104.97,38.701,0.3562,121.67,42.05,113.12,0.34504,cubic,0,12.20861041,H1a