Material_ID,Formula,pretty_formula,KV ,EV ,GV ,PV ,KR ,ER ,GR ,PR ,bulk,shear,young,poisson,csyst,gap,density,y_cla
mp-4552,ErInCu2,ErInCu2,101.33,108.38,41,0.32174,101.33,96.294,35.887,0.34162,101.33,38.444,102.38,0.33161,cubic,0,9.473690861,H1a
mp-2422,ErGa2,ErGa2,75.889,124.87,50.933,0.22577,67.959,116.46,47.951,0.21438,71.924,49.442,120.67,0.22036,hexagonal,0,8.206550427,H4
mp-1019360,ThPSe,ThPSe,97.111,106.13,40.267,0.31785,96.79,104.22,39.462,0.32054,96.951,39.864,105.18,0.31919,tetragonal,0,8.086777032,H4
mp-22617,YNiSn,YNiSn,91,113.23,43.8,0.29261,90.008,105.47,40.421,0.30469,90.504,42.111,109.37,0.29859,orthorhombic,0,7.159711875,H4
mp-1019100,SmFeSi,SmFeSi,80.111,130,52.867,0.22954,71.036,106.95,42.813,0.24907,75.574,47.84,118.51,0.23864,tetragonal,0,7.045097135,H4
mp-7080,Li5(NiN)3,Li5(NiN)3,101.22,151,60.333,0.25137,56.592,81.885,32.524,0.25885,78.907,46.429,116.45,0.25404,hexagonal,0,3.279182723,H4
mp-862257,Sc2ZnAu,Sc2ZnAu,90.333,114.89,44.6,0.28802,90.333,103.63,39.589,0.3088,90.333,42.094,109.3,0.29833,cubic,0,7.544765341,H1a
mp-11824,Ca3PN,Ca3PN,63,126,54,0.16667,63,124.27,53.053,0.17123,63,53.526,125.14,0.16895,cubic,1.4224,2.59983049,H5
mp-1001023,BeC2,BeC2,120,161.29,63.2,0.27599,45.393,66.711,26.577,0.25507,82.697,44.888,114.03,0.27018,tetragonal,1.785,1.878479793,H1a
mp-30423,VAu2,VAu2,127.67,129.38,48.6,0.33109,125.21,35.919,12.367,0.45219,126.44,30.484,84.648,0.38842,orthorhombic,0,14.57222451,H4
mp-619461,WO3,WO3,66.778,132.88,56.867,0.16835,55.185,118.95,52.137,0.14075,60.981,54.502,125.98,0.1557,monoclinic,1.3712,6.702580392,H4
mp-973141,ScCdCu2,ScCdCu2,108.67,113.97,43,0.3252,108.67,79.148,28.706,0.37861,108.67,35.853,96.902,0.35138,cubic,0,7.241547108,H1a
mp-522,CuAu,CuAu,135.33,101.22,36.8,0.37534,134.57,54.749,19.114,0.43219,134.95,27.957,78.453,0.40311,tetragonal,0,14.40035294,H4
mp-6564,Sr2MgSi2O7,Sr2MgSi2O7,86.222,113.1,44.133,0.28137,85.747,110.44,42.962,0.28534,85.984,43.548,111.77,0.28335,tetragonal,4.5359,3.563730007,H4
mp-1029932,LiVN2,LiVN2,82,117.96,46.8,0.26025,78.719,112.52,44.588,0.26177,80.36,45.694,115.24,0.26099,orthorhombic,1.3146,3.086554361,H2
mp-640266,Ca3Al2O6,Ca3Al2O6,92,108,41.4,0.30435,92,107.84,41.33,0.30463,92,41.365,107.92,0.30449,cubic,0,2.98560049,H1a
mp-1407,Rh3Se8,Rh3Se8,77.556,122.11,49.333,0.23759,76.114,112.49,44.864,0.25368,76.835,47.099,117.32,0.24551,trigonal,0,7.018210484,H2
mp-8137,NpSO,NpSO,98.889,111.14,42.333,0.31268,98.54,95.689,35.754,0.33816,98.714,39.044,103.49,0.32528,tetragonal,0,9.813352845,H4
mp-865224,Th2BiTe,Th2BiTe,79,115.99,46.2,0.2553,79,115.99,46.199,0.2553,79,46.199,115.99,0.2553,cubic,0,11.23210333,H1a
mp-972042,Zn3Cu,Zn3Cu,96.889,106.72,40.533,0.31643,95.838,103.11,39.037,0.32068,96.363,39.785,104.92,0.31854,hexagonal,0,7.844756248,H4
mp-864889,ZrZn3,ZrZn3,100.56,105.8,39.933,0.32465,100.35,98.468,36.839,0.33647,100.45,38.386,102.15,0.33052,hexagonal,0,7.245114337,H4
mp-631362,SiTe2Os,SiTe2Os,146,71.487,25.2,0.41839,146,68.988,24.27,0.42125,146,24.735,70.239,0.41982,cubic,0,9.954780533,H1a
mp-976971,NaPd3,NaPd3,93.111,113.29,43.667,0.29721,93.047,100.53,38.08,0.31994,93.079,40.873,106.96,0.30847,tetragonal,0,8.683324056,H4
mp-631388,CdIrRu,CdIrRu,151,66.752,23.4,0.42632,151,66.291,23.23,0.42683,151,23.315,66.521,0.42658,cubic,0,11.9671934,H1a
mp-754839,SnBiO4,SnBiO4,118.78,96.768,35.467,0.36422,118.49,82.252,29.709,0.38431,118.63,32.588,89.563,0.37418,tetragonal,0,6.735865105,H4
mp-572283,SiO2,SiO2,89.444,113.55,44.067,0.28841,89.427,104.8,40.162,0.30469,89.436,42.114,109.2,0.2965,tetragonal,5.4041,2.632751171,H4
mp-568402,Sr(SiPd)2,Sr(SiPd)2,89.444,112.22,43.467,0.29089,89.318,106.2,40.788,0.30184,89.381,42.127,109.22,0.29634,tetragonal,0,6.285717495,H4
mp-334,LaF3,LaF3,101,106.01,40,0.32507,100.6,97.339,36.355,0.33874,100.8,38.177,101.69,0.33186,hexagonal,6.0222,5.810267818,H1b
mp-20800,ZrIn2,ZrIn2,83.222,114.67,45.133,0.27035,83.221,111.43,43.637,0.27683,83.222,44.385,113.06,0.27358,tetragonal,0,7.830351277,H4
mp-3094,SrAl2O4,SrAl2O4,82.333,115.48,45.6,0.26623,80.457,112.76,44.519,0.26642,81.395,45.059,114.12,0.26633,monoclinic,4.1526,3.442440214,H2
mp-865594,Y2CuIr,Y2CuIr,100.67,101.73,38.2,0.33157,100.67,101.67,38.175,0.33167,100.67,38.187,101.7,0.33162,cubic,0,8.702306717,H1a
mp-867242,Sc2ZnGa,Sc2ZnGa,78,131.62,54,0.21875,78,99.829,38.793,0.28669,78,46.397,116.16,0.2518,cubic,0,4.933585387,H1a
mp-997037,CdAuO2,CdAuO2,121.22,99.595,36.533,0.36307,116.3,78.86,28.428,0.38699,118.76,32.481,89.301,0.37468,orthorhombic,0,9.422285778,H4
mp-973092,ScCu3,ScCu3,106.22,106.93,40.133,0.33222,106.21,88.647,32.569,0.3609,106.22,36.351,97.887,0.3464,tetragonal,0,6.951529355,H4
mp-7263,CaGaN,CaGaN,59,128.66,56.6,0.13656,56.82,124.76,55.004,0.13406,57.91,55.802,126.71,0.13533,tetragonal,0,4.214223341,H4
mp-999396,Nb3Ni,Nb3Ni,48.333,131.17,62.6,0.047688,48.333,129.12,61.205,0.054773,48.333,61.903,130.15,0.051219,cubic,0,8.506225172,H1a
mp-1025318,Co(NiSe2)2,Co(NiSe2)2,105.56,104.96,39.333,0.33427,104.07,92.436,34.186,0.35196,104.81,36.76,98.736,0.34299,monoclinic,0,7.056016624,H4
mp-5519,HoGeAu,HoGeAu,84,115.41,45.4,0.27102,81.163,110.99,43.625,0.27209,82.582,44.513,113.2,0.27154,hexagonal,0,11.42430046,H4
mp-632,TmCo2,TmCo2,119.33,91.147,33.2,0.3727,117.09,87.785,31.921,0.37504,118.21,32.56,89.467,0.37386,cubic,0,10.62257552,H1a
mp-30454,ErBiPt,ErBiPt,91,107.85,41.4,0.30248,91,107.82,41.387,0.30254,91,41.393,107.83,0.30251,cubic,0,12.54234278,H1a
mvc-652,Ti(WO4)2,Ti(WO4)2,90.667,118.48,46.2,0.28221,75.686,106.88,42.255,0.26465,83.177,44.228,112.71,0.27416,monoclinic,2.3974,6.578634886,H2
mp-12549,BaAl9Ni2,BaAl9Ni2,78.444,117.67,47.067,0.25,78.404,113.52,45.094,0.25869,78.424,46.08,115.6,0.25433,hexagonal,0,3.790139366,H4
mp-753799,CsTmO2,CsTmO2,86.556,125.22,49.733,0.25889,84.424,96.762,36.961,0.30898,85.49,43.347,111.24,0.28313,hexagonal,2.776,7.604244738,H1b
mp-24045,AlP(H2O3)2,AlP(H2O3)2,73.778,120.49,49.067,0.22781,71.686,117.24,47.76,0.22741,72.732,48.413,118.87,0.22762,orthorhombic,5.4239,2.522071699,H2
mp-631527,In2GeB,In2GeB,190.33,46.124,15.8,0.45961,190.33,27.819,9.4262,0.47564,190.33,12.613,37.022,0.46758,cubic,0,6.522425436,H1a
mp-20098,Ba2PbO4,Ba2PbO4,86.222,112.66,43.933,0.28222,84.734,109.68,42.699,0.28427,85.478,43.316,111.17,0.28324,tetragonal,1.2806,6.989958652,H1a
mp-754055,CsErO2,CsErO2,90.444,122.93,48.267,0.27347,88.188,93.927,35.511,0.32249,89.316,41.889,108.68,0.2972,hexagonal,2.8015,7.505893374,H1b
mp-1029659,Ca3FeN3,Ca3FeN3,76.556,117.32,47.133,0.24458,75.559,116.33,46.778,0.2434,76.057,46.956,116.83,0.244,hexagonal,0,3.222255815,H4
mp-4973,CeSF,CeSF,65.333,124.04,52.4,0.18357,65.326,121.37,50.979,0.19035,65.329,51.69,122.71,0.18695,tetragonal,0,5.808082954,H4
mp-972048,Zn6Mo,Zn6Mo,69.333,126.71,53,0.1954,69.333,114.23,46.609,0.22541,69.333,49.804,120.55,0.21022,cubic,0,6.977976972,H1a
mp-5589,Sr(MnP)2,Sr(MnP)2,78.333,123.68,50,0.23684,77.773,107.13,42.164,0.27042,78.053,46.082,115.51,0.25335,trigonal,0,4.70565654,H2
mp-1240,HoS,HoS,98.333,129.57,50.6,0.28038,98.333,73.632,26.771,0.3752,98.333,38.686,102.6,0.3261,cubic,0,7.901026031,H1a
mp-1014212,Si,Si,93.667,2.9894,1,0.49468,93.667,185.99,79.545,0.16906,93.667,40.273,105.67,0.31197,cubic,0,3.156332161,H1a
mp-10182,LiZnP,LiZnP,65.333,122.92,51.8,0.18644,65.333,122.34,51.494,0.18791,65.333,51.647,122.63,0.18717,cubic,1.3612,3.592060483,H5
mp-569558,AlAu2,AlAu2,119.56,91.999,33.533,0.37175,117.41,85.571,31.037,0.37853,118.48,32.285,88.791,0.3751,orthorhombic,0,13.66778118,H4
mp-8818,Ca2ZnN2,Ca2ZnN2,81.556,121.92,48.733,0.25085,78.138,106.72,41.94,0.27236,79.847,45.337,114.36,0.26128,tetragonal,0.77,3.522257454,H1a
mp-1017985,TiAg,TiAg,110.78,100.53,37.267,0.34876,110.63,87.708,32.06,0.36786,110.7,34.663,94.162,0.35823,tetragonal,0,7.340358692,H4
mp-971669,FeSb3,FeSb3,82,117.96,46.8,0.26025,82,108.02,42.18,0.28045,82,44.49,113.03,0.27027,cubic,0,7.235385221,H1a
mp-570578,ZrIn3,ZrIn3,72.778,123.77,50.867,0.21657,72.285,113.4,45.78,0.23854,72.532,48.323,118.63,0.22742,tetragonal,0,7.874312303,H4
mp-755219,ScTlO2,ScTlO2,108.67,125.97,48.2,0.30679,108.58,62.842,22.387,0.40354,108.62,35.293,95.534,0.35342,trigonal,1.2117,7.792415641,H2
mp-865043,MgInPd2,MgInPd2,108.67,115.37,43.6,0.32305,108.67,74.669,26.947,0.38548,108.67,35.273,95.488,0.35355,cubic,0,8.527944871,H1a
mp-975640,Pr3(CuSn)4,Pr3(CuSn)4,74.667,119.4,48.4,0.23348,73.805,115.8,46.749,0.23851,74.236,47.574,117.6,0.23597,orthorhombic,0,7.754463923,H4
mp-20822,TbMnSi,TbMnSi,88.556,132.42,52.933,0.25078,69.561,96.841,38.187,0.26797,79.058,45.56,114.66,0.25829,tetragonal,0,7.24042781,H4
mp-10624,USbRh,USbRh,113.33,95.2,35,0.36,113.33,89.089,32.538,0.36899,113.33,33.769,92.155,0.36448,cubic,0,11.02606462,H1a
mp-978287,Mg3Mo,Mg3Mo,62.667,125.49,53.8,0.16625,62.667,121.78,51.771,0.17612,62.667,52.785,123.64,0.17117,cubic,0,3.782852636,H1a
mp-769111,Sc3Bi3O11,Sc3Bi3O11,107.33,96.168,35.6,0.35067,107.33,96.131,35.585,0.35073,107.33,35.592,96.149,0.3507,cubic,0,6.857161742,H1a
mp-30455,HoBiPt,HoBiPt,90,107.69,41.4,0.30058,90,107.66,41.387,0.30063,90,41.393,107.67,0.30061,cubic,0,12.40677966,H1a
mp-20384,CeAgAs2,CeAgAs2,84.333,113.75,44.6,0.2752,81.747,110.39,43.29,0.27495,83.04,43.945,112.07,0.27508,tetragonal,0,7.703237267,H4
mp-10848,AsPdS,AsPdS,103.33,100.12,37.4,0.33851,103.33,97.507,36.309,0.34273,103.33,36.855,98.816,0.34062,cubic,0,6.453748059,H1a
mp-9582,Yb(ZnP)2,Yb(ZnP)2,71.111,121.65,50.067,0.21488,70.059,116.91,47.842,0.22187,70.585,48.954,119.29,0.21834,trigonal,0.8599,6.373592868,H2
mp-24286,ZrH2,ZrH2,132.22,93.268,33.733,0.38243,126.64,67.589,23.95,0.41105,129.43,28.842,80.542,0.39629,tetragonal,0,5.543621891,H4
mp-7443,Nb2CrSe4,Nb2CrSe4,76.333,119.05,48,0.24007,75.465,113.37,45.36,0.24963,75.899,46.68,116.21,0.2448,monoclinic,0,6.587088527,H4
mp-999508,MnSiNi2,MnSiNi2,163,99.031,35.4,0.39874,163,10.751,3.61,0.48901,163,19.505,56.27,0.44246,cubic,0,7.24436348,H1a
mp-1029730,Ca4HfN4,Ca4HfN4,89.111,113.93,44.267,0.28691,87.96,102.82,39.391,0.30517,88.535,41.829,108.41,0.29591,triclinic,1.2259,4.266638418,H5
mp-13525,HoInIr,HoInIr,109,98.262,36.4,0.34975,108.26,91.764,33.768,0.35873,108.63,35.084,95.022,0.35421,hexagonal,0,12.18872955,H4
mp-8654,PrSiRu,PrSiRu,85.333,127.58,51,0.25081,71.498,101.68,40.253,0.26298,78.416,45.626,114.64,0.25633,tetragonal,0,7.062379776,H4
mp-9212,NaAlO2,NaAlO2,81.889,118.22,46.933,0.2594,80.472,107.64,42.144,0.27706,81.18,44.539,112.96,0.26809,orthorhombic,3.8149,2.668605853,H2
mp-11256,ScAu,ScAu,102.67,103.38,38.8,0.33218,102.67,94.498,35.088,0.34659,102.67,36.944,98.961,0.33935,cubic,0,10.09937052,H1a
mp-867932,Sm2MgGe2,Sm2MgGe2,67.889,126.8,53.333,0.18872,67.086,114.6,47.148,0.2153,67.487,50.241,120.76,0.20178,tetragonal,0,6.567133721,H4
mp-978264,MgW3,MgW3,155.11,106.08,38.267,0.38602,147.44,20.429,6.9163,0.47691,151.27,22.591,64.561,0.42887,hexagonal,0,14.08470958,H4
mp-753946,LiCoS2,LiCoS2,79.444,123.3,49.667,0.24132,69.875,110.05,44.464,0.23751,74.66,47.065,116.68,0.23953,trigonal,0.6706,3.746000927,H2
mp-996990,BaAgO2,BaAgO2,86.111,118.15,46.467,0.27133,77.56,106.53,41.905,0.27108,81.835,44.186,112.34,0.27121,tetragonal,0,6.557953356,H4
mp-1018097,BaCaO2,BaCaO2,74.111,116.94,47.267,0.23702,74.108,116.85,47.223,0.23721,74.11,47.245,116.89,0.23711,tetragonal,2.1746,4.632472302,H4
mp-2384,LaP,LaP,82,116.69,46.2,0.26283,82,107.47,41.931,0.28156,82,44.066,112.11,0.27213,cubic,0,5.093164792,H1a
mp-11252,MnAu2,MnAu2,124.22,119.34,44.533,0.33988,123.03,46.502,16.18,0.43701,123.63,30.357,84.18,0.38651,tetragonal,0,14.56527334,H4
mp-861629,LiMnPd2,LiMnPd2,112.33,111.09,41.6,0.33518,112.33,72.222,25.926,0.39285,112.33,33.763,92.065,0.3634,cubic,0,7.914597146,H1a
mp-1029610,Ca3CoN3,Ca3CoN3,79.889,114.37,45.333,0.2614,79.066,112.89,44.727,0.26203,79.478,45.03,113.63,0.26171,hexagonal,0,3.322447337,H4
mp-20481,MnSnPd2,MnSnPd2,133,114,42,0.35714,133,38.332,13.2,0.45197,133,27.6,77.443,0.40295,cubic,0,9.647958026,H1a
mp-16483,BaAl9Fe2,BaAl9Fe2,79.333,119.83,48,0.24825,79.125,107.43,42.17,0.27372,79.229,45.085,113.69,0.26084,hexagonal,0,3.724329568,H4
mp-978256,Mg2TlPb,Mg2TlPb,114.33,90.81,33.2,0.36762,114.33,90.282,32.988,0.36839,114.33,33.094,90.546,0.36801,cubic,0,7.304759136,H1a
mp-21020,Sr2UO4,Sr2UO4,92.778,107.81,41.267,0.30632,92.273,102.71,39.068,0.31448,92.525,40.167,105.27,0.31038,tetragonal,0,6.284478256,H4
mp-1692,CuO,CuO,150.44,95.546,34.267,0.39415,135.17,44.146,15.27,0.44557,142.81,24.768,70.243,0.41802,tetragonal,0,5.981122501,H4
mp-863668,Pm2CuOs,Pm2CuOs,108.33,94.792,35,0.35417,108.33,94.36,34.824,0.35483,108.33,34.912,94.576,0.3545,cubic,0,10.35895164,H1a
mp-984544,Dy2ZnIr,Dy2ZnIr,100,100.71,37.8,0.33215,100,99.705,37.376,0.33382,100,37.588,100.21,0.33299,cubic,0,11.42637968,H1a
mp-33104,Sm2O,Sm2O,85.222,110.72,43.133,0.28347,83.928,109.76,42.808,0.28203,84.575,42.971,110.24,0.28275,tetragonal,0,7.975357339,H4
mp-12675,MnAu,MnAu,116.11,117.83,44.267,0.33087,116.1,58.613,20.699,0.41586,116.1,32.483,89.135,0.37205,tetragonal,0,12.42913967,H4
mp-1018674,DyAlZn,DyAlZn,69.667,130.25,54.8,0.1884,62.752,111.53,46.323,0.20379,66.209,50.562,120.91,0.19564,hexagonal,0,6.785827726,H4
mp-2845,SbPt,SbPt,125.22,87.274,31.533,0.38384,123.77,79.12,28.39,0.39345,124.49,29.962,83.209,0.3886,hexagonal,0,12.27577196,H4
mp-559092,ScF3,ScF3,90.667,136,54.4,0.25,90.667,73.747,27.025,0.36444,90.667,40.712,106.24,0.30471,trigonal,6.105,2.51341459,H2
mp-2310,CdO2,CdO2,103,98.172,36.6,0.34115,103,97.926,36.497,0.34154,103,36.549,98.049,0.34135,cubic,1.2812,6.075567913,H5
mp-643273,NaH2Pd3,NaH2Pd3,109,111.66,42,0.32927,107.13,76.807,27.818,0.38051,108.07,34.909,94.547,0.35418,orthorhombic,0,8.086689786,H4
mp-5787,SrCuO2,SrCuO2,97.667,121.06,46.8,0.29341,78.89,94.255,36.227,0.30087,88.278,41.514,107.66,0.29673,orthorhombic,0,5.167573151,H4
mp-20456,Co3Se4,Co3Se4,95.333,103.42,39.2,0.31919,95.333,102.7,38.889,0.32045,95.333,39.044,103.06,0.31982,cubic,0,6.841291291,H1a
mp-2470,DyS,DyS,97.333,128.07,50,0.2807,97.333,73.458,26.727,0.37422,97.333,38.364,101.73,0.32581,cubic,0,7.677462071,H1a
mp-19895,NiSb2,NiSb2,87.889,116.05,45.333,0.27994,87.318,99.912,38.155,0.30929,87.603,41.744,108.07,0.2944,orthorhombic,0,7.811226227,H4
mp-1009088,BeGeAs2,BeGeAs2,63.667,125.2,53.4,0.17226,63.378,119.01,50.127,0.18704,63.522,51.764,122.12,0.17959,tetragonal,0.6601,4.729998635,H1a
mp-569785,TlPd3,TlPd3,132,92.916,33.6,0.38268,132,62.037,21.818,0.42167,132,27.709,77.691,0.40191,cubic,0,12.694762,H1a
mp-16751,ErCuPb,ErCuPb,75.444,116.89,47.067,0.24177,74.224,114.87,46.24,0.24207,74.834,46.653,115.88,0.24192,hexagonal,0,10.86104578,H4
mp-864920,MgZrAu2,MgZrAu2,117,99.432,36.6,0.35836,117,76.743,27.592,0.39068,117,32.096,88.221,0.37433,cubic,0,11.00322788,H1a
mp-865530,YThRu2,YThRu2,123.33,94.421,34.4,0.3724,123.33,72.748,25.95,0.40169,123.33,30.175,83.699,0.38689,cubic,0,10.23123508,H1a
mp-1029592,Li3YN2,Li3YN2,81,117.73,46.8,0.25776,81,106.3,41.48,0.28128,81,44.14,112.06,0.26941,cubic,2.119,3.139913994,H2
mp-1009238,Hf2Tl,Hf2Tl,128.56,127.9,47.933,0.33418,123.62,31.384,10.765,0.45769,126.09,29.349,81.708,0.39199,tetragonal,0,13.73575802,H4
mp-10443,YbSiAu,YbSiAu,77.556,118,47.333,0.24643,73.095,112.82,45.39,0.24276,75.325,46.362,115.41,0.24464,orthorhombic,0,11.02696783,H4
mvc-916,BaMgV4O8,BaMgV4O8,103.22,109.86,41.533,0.32261,101.53,86.048,31.664,0.35875,102.38,36.599,98.106,0.34028,trigonal,0.9439,4.256362167,H2
mp-1025191,ScGa5Ni,ScGa5Ni,90.222,111.61,43.133,0.29382,90.019,100.74,38.348,0.31348,90.121,40.741,106.22,0.30357,tetragonal,0,6.430499342,H4
mp-7823,V2NiSe4,V2NiSe4,84.444,113.48,44.467,0.27602,82.434,107.39,41.857,0.28287,83.439,43.162,110.44,0.2794,monoclinic,0,6.504179913,H4
mp-30453,DyBiPt,DyBiPt,89.333,106.68,41,0.30097,89.333,106.68,41,0.30097,89.333,41,106.68,0.30097,cubic,0,12.26627145,H1a
mp-1722,Zn13Fe,Zn13Fe,86,111.45,43.4,0.28401,85.725,106.24,41.07,0.29344,85.863,42.235,108.86,0.2887,monoclinic,0,7.319384549,H4
mp-5394,LaSF,LaSF,84.889,110.66,43.133,0.28274,84.754,108.31,42.078,0.28701,84.821,42.606,109.49,0.28487,tetragonal,1.4881,5.469897209,H1a
mp-7846,Zn3P2,Zn3P2,65.667,121.16,50.8,0.19249,65.667,120.12,50.257,0.19511,65.667,50.528,120.64,0.1938,cubic,0.1185,4.590355271,H5
mp-865282,Tm2AgRu,Tm2AgRu,97,101.77,38.4,0.32514,97,101.13,38.127,0.32624,97,38.263,101.45,0.32569,cubic,0,10.89689035,H1a
mp-20990,Pr3InN,Pr3InN,68.333,119.42,49.4,0.20873,68.333,118.76,49.061,0.21034,68.333,49.23,119.09,0.20953,cubic,0,6.954970764,H1a
mp-569,NdCo5,NdCo5,120.56,101.03,37.133,0.36033,115.66,72.405,25.939,0.39566,118.11,31.536,86.877,0.3774,hexagonal,0,8.481168923,H4
mp-865730,TiZnAu2,TiZnAu2,134.67,112.16,41.2,0.36119,134.67,35.531,12.201,0.45603,134.67,26.701,75.136,0.40701,cubic,0,12.57271903,H1a
mp-984876,Ba2Pd2O5,Ba2Pd2O5,106.44,115.24,43.667,0.31956,86.375,88.124,33.13,0.32996,96.41,38.399,101.69,0.3242,tetragonal,0,6.63998693,H4
mp-976259,LiTmRh2,LiTmRh2,100.67,100.31,37.6,0.33392,100.67,97.327,36.347,0.33886,100.67,36.973,98.822,0.33639,cubic,0,9.79744906,H1a
mp-21158,CeAlPd,CeAlPd,94.556,106.4,40.533,0.31246,91.326,101.48,38.591,0.31481,92.941,39.562,103.94,0.31361,hexagonal,0,7.296181431,H4
mp-400,NdAl2,NdAl2,71,118.71,48.6,0.22133,71,116.2,47.341,0.22724,71,47.971,117.46,0.22428,cubic,0,5.0585345,H1a
mp-674334,Ca2SiO4,Ca2SiO4,88,110.04,42.6,0.29159,86.386,105.22,40.562,0.297,87.193,41.581,107.63,0.29426,monoclinic,4.375,3.155509082,H2
mp-1025448,YPt,YPt,109.56,97.663,36.133,0.35143,106.14,90.128,33.172,0.35848,107.85,34.653,93.901,0.35489,orthorhombic,0,10.49073715,H4
mp-973869,LaCdO3,LaCdO3,106.33,124.26,47.6,0.30524,106.33,63.452,22.653,0.40055,106.33,35.126,94.926,0.35121,cubic,0,6.803894253,H1a
mp-3716,TbNiSb,TbNiSb,57.667,126.23,55.6,0.13517,57.667,122.26,53.311,0.14665,57.667,54.456,124.25,0.14088,cubic,0.3842,8.720658048,H5
mp-989586,SrTcN3,SrTcN3,124.56,93.325,33.933,0.37512,120.44,73.888,26.431,0.39776,122.5,30.182,83.675,0.38616,orthorhombic,0,4.931805338,H4
mp-1019551,BaNa2Mg(PO4)2,BaNa2Mg(PO4)2,75.667,116.4,46.8,0.24361,72.889,114.61,46.288,0.23795,74.278,46.544,115.51,0.24082,trigonal,4.8791,3.72318335,H2
mp-19405,Ni(AgO)2,Ni(AgO)2,125.67,91.032,33,0.37927,124.94,72.017,25.648,0.40393,125.3,29.324,81.607,0.39145,trigonal,0,8.2211948,H2
mp-5186,ScNiSn,ScNiSn,101.67,103.74,39,0.32994,97.512,94.94,35.486,0.33773,99.589,37.243,99.345,0.33374,orthorhombic,0,6.73255091,H4
mp-862548,Sc2AlZn,Sc2AlZn,76,134.49,55.8,0.20507,76,92.596,35.698,0.29694,76,45.749,114.31,0.24932,cubic,0,3.938287606,H1a
mp-31205,Zr3Fe,Zr3Fe,103.78,97.929,36.467,0.34273,103.68,94.937,35.23,0.34739,103.73,35.848,96.436,0.34506,orthorhombic,0,6.808804543,H4
mp-16482,TiAlAu2,TiAlAu2,139.67,105.02,38.2,0.37467,139.67,35.247,12.088,0.45794,139.67,25.144,71.162,0.41508,cubic,0,11.51377862,H1a
mp-972961,Sc2NiRh,Sc2NiRh,100.67,105.96,40,0.32456,100.67,90.822,33.647,0.34963,100.67,36.824,98.465,0.33698,cubic,0,6.304870518,H1a
mp-1610,TbS,TbS,96.667,127.07,49.6,0.28092,96.667,73.34,26.697,0.37355,96.667,38.149,101.14,0.32562,cubic,0,7.407766487,H1a
mp-19237,Sr2MoO4,Sr2MoO4,136.78,9.1318,3.0667,0.48887,134.41,132.26,49.498,0.336,135.59,26.282,74.062,0.40897,tetragonal,0,5.298045787,H4
mp-15659,Sb2Pt3,Sb2Pt3,135.56,106.59,38.933,0.36894,134.63,40.29,13.892,0.45012,135.1,26.413,74.39,0.40823,orthorhombic,0,13.93375477,H4
mp-984104,Dy2IrAu,Dy2IrAu,109.67,92.446,34,0.3595,109.67,91.998,33.818,0.36019,109.67,33.909,92.222,0.35984,cubic,0,13.67441756,H1a
mp-1259,YbAl3,YbAl3,59.333,123.59,53.6,0.15285,59.333,122.58,53.035,0.15567,59.333,53.318,123.08,0.15426,cubic,0,5.333926334,H1a
mp-561536,NaMgBO3,NaMgBO3,110.44,166.91,66.867,0.24812,96.825,13.926,4.7175,0.47603,103.63,35.792,96.291,0.34514,monoclinic,3.5934,2.839586466,H2
mp-12764,SmC2,SmC2,106.67,145.58,57.2,0.27253,98.782,42.745,14.968,0.42788,102.72,36.084,96.906,0.34277,tetragonal,0,6.360438903,H4
mp-981749,TcAg3,TcAg3,109.44,112.34,42.267,0.32893,109.43,71.326,25.632,0.39137,109.44,33.949,92.303,0.35943,tetragonal,0,9.954897123,H4
mp-1007906,ErH,ErH,67.556,119.41,49.533,0.20539,67.519,118.12,48.872,0.20843,67.537,49.203,118.77,0.20691,hexagonal,0,9.265121487,H4