Material_ID,Formula,pretty_formula,KV ,EV ,GV ,PV ,KR ,ER ,GR ,PR ,bulk,shear,young,poisson,csyst,gap,density,y_cla
mp-555280,ZnS,ZnS,69.444,86.949,33.667,0.29132,69.432,83.355,32.062,0.29991,69.438,32.864,85.158,0.2956,trigonal,2.0653,3.991812886,H2
mp-568177,CaAlSiH,CaAlSiH,59.889,104.74,43.333,0.20852,44.469,85.881,36.448,0.17812,52.179,39.891,95.369,0.19538,trigonal,0.4074,2.285907775,H2
mp-30587,MgInCu4,MgInCu4,97,75.627,27.6,0.37006,97,57.078,20.357,0.40193,97,23.979,66.459,0.38581,cubic,0,7.409327159,H1a
mp-980662,YTmAl2,YTmAl2,66.333,111.69,45.8,0.21936,66.333,59.899,22.193,0.3495,66.333,33.996,87.108,0.28114,cubic,0,5.668977173,H1a
mp-861910,Sc3Hg,Sc3Hg,65.556,87.691,34.333,0.27706,65.531,87.504,34.249,0.27745,65.543,34.291,87.597,0.27725,hexagonal,0,6.095376435,H4
mp-567191,CaAlSi,CaAlSi,61.333,97.354,39.4,0.23545,49.498,89.653,37.414,0.19812,55.416,38.407,93.598,0.2185,hexagonal,0,2.366589009,H4
mp-23058,NdClO,NdClO,68.667,91.499,35.8,0.27792,66.485,81.036,31.243,0.29686,67.576,33.522,86.295,0.28716,tetragonal,4.7693,5.724750697,H4
mp-643264,BaMg2FeH8,BaMg2FeH8,54.111,96.019,39.867,0.20425,53.159,93.097,38.53,0.20812,53.635,39.198,94.559,0.20617,trigonal,1.4425,3.310495702,H2
mp-14587,ZnP4,ZnP4,63.222,90.63,35.933,0.26108,63.201,87.347,34.398,0.26966,63.212,35.166,88.994,0.26536,tetragonal,1.0051,3.37471794,H1a
mp-11229,YAl,YAl,64.667,107.99,44.2,0.22166,64.667,66.438,25,0.32877,64.667,34.6,88.089,0.27297,cubic,0,4.104683242,H1a
mp-16745,ErAgPb,ErAgPb,71,85.72,33,0.29878,70.768,82.559,31.618,0.30556,70.884,32.309,84.143,0.30216,hexagonal,0,10.79773739,H4
mp-557257,KVF3,KVF3,68,94.388,37.2,0.26866,68,77.237,29.464,0.31069,68,33.332,85.952,0.28933,cubic,2.4535,3.236477072,H2
mp-865845,Yb2CuIr,Yb2CuIr,70,90.88,35.4,0.28362,70,78.292,29.801,0.31359,70,32.6,84.659,0.29843,cubic,0,12.94105136,H1a
mp-570485,SrAlSiH,SrAlSiH,56.667,102.58,42.8,0.19831,47.185,88.15,37.08,0.18864,51.926,39.94,95.369,0.19389,trigonal,0.6205,3.102445307,H2
mp-1025077,TbSe2,TbSe2,75.889,88.14,33.733,0.30643,75.764,73.282,27.369,0.33879,75.827,30.551,80.801,0.3224,tetragonal,0,7.516694761,H4
mp-555477,Ag2H3IO6,Ag2H3IO6,89,77.499,28.6,0.35487,87.222,67.381,24.569,0.37125,88.111,26.585,72.466,0.36293,trigonal,0.7214,5.613015748,H2
mp-20358,UInAu2,UInAu2,98,68.102,24.6,0.38418,98,62.967,22.603,0.39291,98,23.601,65.543,0.38853,cubic,0,14.02450581,H1a
mp-844,Ca3N2,Ca3N2,67.667,86.043,33.4,0.28807,67.667,86.027,33.393,0.28811,67.667,33.396,86.035,0.28809,cubic,1.1111,2.606386489,H5
mp-567314,ErNi,ErNi,91,75.692,27.8,0.36137,88.667,66.722,24.27,0.37458,89.834,26.035,71.224,0.36786,orthorhombic,0,9.731601524,H4
mp-867895,Sm2CuRu,Sm2CuRu,72.667,82.798,31.6,0.3101,72.667,82.781,31.592,0.31014,72.667,31.596,82.789,0.31012,cubic,0,9.040042877,H1a
mp-8298,Sr4P2O,Sr4P2O,66.889,87.514,34.133,0.28194,66.718,85.577,33.267,0.28622,66.804,33.7,86.547,0.28408,tetragonal,1.2401,3.792621773,H1a
mp-27840,Cr3Se4,Cr3Se4,67.111,87.41,34.067,0.28292,65.742,85.917,33.504,0.28219,66.427,33.785,86.664,0.28256,monoclinic,0,5.577899782,H4
mp-7725,Na2UO4,Na2UO4,72.333,91.305,35.4,0.28962,67.073,77.789,29.765,0.30671,69.703,32.583,84.571,0.29778,tetragonal,2.0479,5.138767077,H4
mp-554405,ZnS,ZnS,69.111,86.446,33.467,0.29153,69.099,83.435,32.121,0.29875,69.105,32.794,84.945,0.29513,trigonal,2.1299,3.996489897,H2
mp-5693,NaCrS2,NaCrS2,60.444,94.795,38.267,0.23862,59.16,86.452,34.403,0.25645,59.802,36.335,90.647,0.24737,trigonal,1.0758,3.184247083,H2
mp-1029347,KPtN,KPtN,83.444,120.97,48.067,0.25838,45.657,54.187,20.806,0.3022,64.551,34.436,87.712,0.27353,tetragonal,0,6.380550041,H4
mp-10183,MgSbPd,MgSbPd,80.667,78.168,29.2,0.3385,80.667,76.267,28.407,0.34242,80.667,28.803,77.219,0.34046,cubic,0,6.539555386,H1a
mp-11155,NdMgGa,NdMgGa,51.556,98.224,41.533,0.18247,51.169,92.31,38.484,0.19933,51.362,40.009,95.285,0.19081,hexagonal,0,5.389812138,H4
mp-1490,AlAu4,AlAu4,126.67,52.651,18.4,0.43072,126.67,36.209,12.466,0.45236,126.67,15.433,44.492,0.44146,cubic,0,15.41555544,H1a
mp-2234,Er2S3,Er2S3,69.333,86.336,33.4,0.29246,68.76,83.244,32.061,0.29823,69.047,32.73,84.793,0.29533,monoclinic,1.4691,6.122583379,H4
mp-975909,LiAu3,LiAu3,95.556,82.292,30.333,0.35647,95.297,50.97,18.063,0.41086,95.426,24.198,66.937,0.38309,tetragonal,0,14.55420515,H4
mp-30778,Mg5Rh2,Mg5Rh2,70.778,84.482,32.467,0.30106,70.606,82.953,31.803,0.30419,70.692,32.135,83.718,0.30262,hexagonal,0,4.186207678,H4
mp-11365,Ti3Cu,Ti3Cu,126.56,46.979,16.333,0.43813,126.54,42.076,14.563,0.44458,126.55,15.448,44.533,0.44135,cubic,0,5.505444611,H1a
mp-1001784,LiTiS2,LiTiS2,54,98.158,41,0.19704,53.856,89.404,36.541,0.22332,53.928,38.771,93.827,0.21002,trigonal,0,3.066797907,H2
mp-510374,GdAs,GdAs,38.333,104.55,50,0.045455,38.333,96.786,44.842,0.07919,38.333,47.421,100.73,0.062054,cubic,0,7.519791499,H1a
mp-552992,DyBi2BrO4,DyBi2BrO4,71.111,102.04,40.467,0.26084,55.775,74.402,29.116,0.27767,63.443,34.791,88.244,0.26818,tetragonal,1.3993,8.423513003,H1a
mp-5473,CaMgSi,CaMgSi,50.667,96.498,40.8,0.18257,50.374,94.678,39.89,0.18675,50.52,40.345,95.589,0.18465,orthorhombic,0.0159,2.228699165,H2
mp-569674,La(CoAs)2,La(CoAs)2,96,138.54,55,0.25948,35.833,33.972,12.657,0.34199,65.917,33.829,86.661,0.28088,tetragonal,0,7.808637052,H4
mp-867869,Sm2AgRu,Sm2AgRu,86.667,72.887,26.8,0.35983,86.667,72.881,26.798,0.35984,86.667,26.799,72.884,0.35984,cubic,0,9.188909589,H1a
mp-865934,YbF2,YbF2,82.778,94.936,36.267,0.30885,79.893,57.072,20.664,0.38094,81.335,28.465,76.475,0.34329,tetragonal,6.7331,7.541455191,H4
mp-865520,YCdPd2,YCdPd2,97.667,78.17,28.6,0.3666,97.667,51.682,18.304,0.41181,97.667,23.452,65.141,0.38884,cubic,0,8.731274125,H1a
mp-19934,CeMgPt,CeMgPt,79.222,80.228,30.133,0.33122,79.214,75.499,28.147,0.34115,79.218,29.14,77.873,0.33616,hexagonal,0,8.863325269,H4
mp-981393,Lu2HgAu,Lu2HgAu,83.667,81.348,30.4,0.33795,83.667,68.207,25,0.36413,83.667,27.7,74.841,0.35091,cubic,0,13.40131458,H1a
mp-978269,MgZn2,MgZn2,63,90.72,36,0.26,63,85.884,33.738,0.27279,63,34.869,88.314,0.26636,cubic,0,5.080755055,H1a
mp-555763,ZnS,ZnS,69.222,86.169,33.333,0.29253,69.202,82.596,31.742,0.30107,69.212,32.537,84.388,0.29679,trigonal,2.0615,3.997493968,H2
mp-867303,AgAu3,AgAu3,125.67,63.965,22.6,0.41517,125.67,25.043,8.5366,0.46679,125.67,15.568,44.853,0.44051,cubic,0,15.99953403,H1a
mp-30784,Mg2Zn11,Mg2Zn11,67.333,85.541,33.2,0.28827,67.333,85.476,33.171,0.28843,67.333,33.185,85.508,0.28835,cubic,0,6.12090909,H1a
mp-580287,Zr3Cu,Zr3Cu,98.667,64.541,23.2,0.39098,98.667,63.979,22.982,0.39193,98.667,23.091,64.26,0.39145,cubic,0,6.986658843,H1a
mp-613,Te2Pd3,Te2Pd3,98.111,66.23,23.867,0.38749,95.002,65.219,23.535,0.38558,96.557,23.701,65.725,0.38655,orthorhombic,0,9.398117954,H4
mp-2120,HoAg2,HoAg2,75.667,87.804,33.6,0.3066,74.657,72.84,27.232,0.33739,75.162,30.416,80.403,0.32171,tetragonal,0,9.779243288,H4
mp-753260,LaAgO2,LaAgO2,108.56,80.223,29.133,0.37683,106.04,34.851,12.057,0.44522,107.3,20.595,58.071,0.4098,trigonal,2.9097,5.827898036,H2
mvc-13598,YBiO3,YBiO3,110.33,97.894,36.2,0.35212,110.33,9.7532,3.2833,0.48527,110.33,19.742,55.891,0.41557,cubic,0,6.703400806,H1a
mp-4533,Na2SiO3,Na2SiO3,61.889,92.833,37.133,0.25,61.858,84.705,33.302,0.27177,61.873,35.218,88.804,0.26079,orthorhombic,3.8634,2.540293241,H2
mp-30418,SnAu5,SnAu5,114.78,54.737,19.267,0.42052,114.77,50.462,17.685,0.42672,114.77,18.476,52.604,0.42361,trigonal,0,16.00173421,H2
mp-21289,TiZn3,TiZn3,95.667,117.6,45.4,0.29513,95.667,7.2907,2.451,0.4873,95.667,23.925,66.253,0.38458,cubic,0,6.697660442,H1a
mvc-8365,MgFe2O5,MgFe2O5,87.778,85.757,32.067,0.33717,86.688,57.991,20.882,0.38851,87.233,26.475,72.127,0.36219,orthorhombic,0,3.26775142,H4
mp-6498,CoCu2GeS4,CoCu2GeS4,69.889,88.507,34.333,0.28893,69.809,78.934,30.092,0.31155,69.849,32.213,83.762,0.30014,tetragonal,0,4.377156522,H4
mp-12520,SrNi2Ge,SrNi2Ge,75.333,95.827,37.2,0.28799,68.193,68.833,25.843,0.33177,71.763,31.521,82.487,0.30843,hexagonal,0,5.943042914,H4
mp-864601,LiMg2Rh,LiMg2Rh,67,94.171,37.2,0.26574,67,76.536,29.221,0.30961,67,33.21,85.504,0.2873,cubic,0,4.032199873,H1a
mp-865607,LuGaPd2,LuGaPd2,111.33,55.005,19.4,0.41766,111.33,54.929,19.372,0.41777,111.33,19.386,54.967,0.41771,cubic,0,10.86753117,H1a
mp-5166,Ca(AsPd)2,Ca(AsPd)2,87.889,75.773,27.933,0.35631,86.439,68.255,24.94,0.36839,87.164,26.437,72.028,0.36228,tetragonal,0,6.851827936,H4
mp-2398,ScSn2,ScSn2,64.889,91.856,36.333,0.26407,63.405,82.46,32.13,0.28324,64.147,34.231,87.186,0.27347,tetragonal,0,6.533091302,H4
mp-686717,Fe2NiSe4,Fe2NiSe4,74,86.643,33.2,0.30486,70.924,77.085,29.224,0.31885,72.462,31.212,81.88,0.31167,triclinic,0,6.976891663,H4
mp-1319,ZrTe,ZrTe,70.889,94.84,37.133,0.27702,65,74.526,28.469,0.30891,67.944,32.801,84.763,0.29208,hexagonal,0,7.371979359,H4
mp-1007690,HgPt3,HgPt3,103.67,63.207,22.6,0.39838,103.67,57.438,20.402,0.40766,103.67,21.501,60.332,0.403,cubic,0,19.3187339,H1a
mp-864611,Nd2IrRh,Nd2IrRh,103.67,63.207,22.6,0.39838,103.67,57.438,20.402,0.40766,103.67,21.501,60.332,0.403,cubic,0,10.86013859,H1a
mp-1018136,LaBiPt,LaBiPt,70.333,84.712,32.6,0.29926,70.333,81.705,31.271,0.30639,70.333,31.936,83.212,0.30281,cubic,0.1678,10.65576523,H5
mp-384,MgP4,MgP4,58.556,93.184,37.733,0.23477,57.226,88.544,35.642,0.24213,57.891,36.688,90.868,0.23839,monoclinic,0.6672,2.466141495,H4
mp-3158,Li2SbPt,Li2SbPt,81,99.48,38.4,0.29531,81,50.93,18.252,0.39521,81,28.326,76.106,0.3434,cubic,0,8.527721711,H1a
mp-865329,Lu2MgTc,Lu2MgTc,81.333,76.317,28.4,0.34361,81.333,75.415,28.026,0.34546,81.333,28.213,75.867,0.34454,cubic,0,9.153812258,H1a
mp-1018072,KTiS2,KTiS2,62,88.796,35.2,0.2613,61.854,88.081,34.879,0.26266,61.927,35.04,88.439,0.26198,trigonal,0,2.949823503,H2
mp-568446,Er5Si4,Er5Si4,79.556,98.64,38.133,0.29335,78.865,54.393,19.636,0.38505,79.21,28.885,77.262,0.33743,orthorhombic,0,7.780853504,H4
mp-27984,PrClO,PrClO,70.111,89.284,34.667,0.28776,67.26,79.022,30.296,0.30419,68.685,32.481,84.175,0.29575,tetragonal,4.7032,5.502390652,H4
mp-972945,HoErAg2,HoErAg2,69.667,85.052,32.8,0.29653,69.667,82.025,31.457,0.30377,69.667,32.128,83.543,0.30014,cubic,0,9.594342191,H1a
mp-23141,Sr5P3BrO12,Sr5P3BrO12,65.444,88.826,34.867,0.27379,60.602,86.584,34.308,0.26188,63.023,34.587,87.716,0.26803,hexagonal,4.9315,4.136537431,H1b
mp-865356,Tm2MgAl,Tm2MgAl,57,105.74,44.4,0.19081,57,75.73,29.615,0.27857,57,37.008,91.27,0.23313,cubic,0,6.759787084,H1a
mp-7204,CaZnSO,CaZnSO,69.333,84.549,32.6,0.29676,68.323,83.488,32.202,0.29634,68.828,32.401,84.018,0.29655,hexagonal,2.6853,3.580958773,H1b
mp-864978,Mg2AgAu,Mg2AgAu,73,92.753,36,0.28824,73,69.392,25.862,0.34157,73,30.931,81.309,0.31436,cubic,0,8.054142685,H1a
mp-258,ZrV2,ZrV2,140.33,33.867,11.6,0.45978,140.33,32.986,11.29,0.46082,140.33,11.445,33.427,0.4603,cubic,0,6.433458952,H1a
mp-12602,PrZn5,PrZn5,64.444,94.574,37.667,0.25541,64.43,78.646,30.329,0.29656,64.437,33.998,86.738,0.27565,hexagonal,0,7.145451753,H4
mp-12703,PrZnNi,PrZnNi,77.444,81.272,30.667,0.3251,75.984,76.284,28.621,0.33268,76.714,29.644,78.783,0.32884,hexagonal,0,7.489617263,H4
mp-553308,CsNdO2,CsNdO2,66.889,96.978,38.533,0.25836,64.345,74.62,28.552,0.30672,65.617,33.543,85.978,0.28162,hexagonal,2.9366,6.220810131,H1b
mp-1067,LiAl,LiAl,49.667,104.39,45.4,0.14969,49.667,85.427,35.203,0.21333,49.667,40.302,95.165,0.18066,cubic,0,1.754628439,H1a
mp-1018728,HoSe2,HoSe2,75.333,88.208,33.8,0.30485,75.232,70.955,26.42,0.34281,75.283,30.11,79.704,0.32354,tetragonal,0,7.836342458,H4
mp-861483,Pr2IrPd,Pr2IrPd,92.333,68.286,24.8,0.37674,92.333,67.808,24.611,0.3776,92.333,24.705,68.047,0.37717,cubic,0,10.25937852,H1a
mp-7475,La2S3,La2S3,69.667,84.603,32.6,0.2976,68.549,82.829,31.891,0.29861,69.108,32.246,83.716,0.2981,orthorhombic,1.0358,4.935180731,H2
mp-4626,CaCO3,CaCO3,70.222,88.566,34.333,0.2898,66.872,79.435,30.504,0.30202,68.547,32.419,84.012,0.29573,orthorhombic,4.1878,2.83803772,H2
mp-1029357,NaZnN,NaZnN,74.222,96.797,37.733,0.28264,58.971,73.594,28.481,0.292,66.596,33.107,85.202,0.28677,hexagonal,0,3.797168444,H4
mp-9592,Yb(MnAs)2,Yb(MnAs)2,61.333,96.946,39.2,0.23656,60.623,80.117,31.302,0.27974,60.978,35.251,88.667,0.25765,trigonal,0,7.541389806,H2
mp-29771,MgC2,MgC2,81.778,99.31,38.267,0.2976,73.436,55.709,20.279,0.37357,77.607,29.273,78.01,0.33247,tetragonal,2.6435,2.061823024,H4
mp-867815,AcGa3,AcGa3,52.222,95.085,39.733,0.19654,52.06,92.327,38.328,0.20442,52.141,39.031,93.71,0.20046,hexagonal,0,7.596090276,H4
mp-16254,BaCuP,BaCuP,57.333,91.349,37,0.23445,57.29,90.288,36.485,0.23734,57.312,36.742,90.819,0.23589,hexagonal,0,5.410628366,H4
mp-571566,Li2ZnSi,Li2ZnSi,50,102.42,44.2,0.1586,43.463,90.428,39.206,0.15324,46.731,41.703,96.426,0.1561,trigonal,0,2.823157267,H2
mp-6847,KY2Ti2S2O5,KY2Ti2S2O5,74.778,100.69,39.467,0.27559,73.399,58.544,21.412,0.36707,74.088,30.439,80.318,0.31932,tetragonal,0,3.62238439,H4
mp-560588,ZnS,ZnS,68.444,85.441,33.067,0.29195,68.406,82.498,31.755,0.299,68.425,32.411,83.973,0.29546,hexagonal,2.0776,3.995420461,H1b
mp-29733,MgNiBi,MgNiBi,66.333,85.359,33.2,0.28553,66.333,85.218,33.136,0.28588,66.333,33.168,85.289,0.28571,cubic,0,7.832719997,H1a
mp-977445,Nd2ZnIr,Nd2ZnIr,84.333,73.679,27.2,0.35439,84.333,73.051,26.943,0.35563,84.333,27.072,73.365,0.35501,cubic,0,9.665036303,H1a
mp-2665,PrRu2,PrRu2,142.67,46.27,16,0.44595,142.67,16.1,5.4348,0.48119,142.67,10.717,31.367,0.46336,cubic,0,9.941107182,H1a
mp-971933,YZr,YZr,58.222,91.461,36.933,0.23819,57.373,89.417,36.048,0.24025,57.797,36.491,90.439,0.23921,hexagonal,0,5.454318727,H4
mp-862977,Pm2AgIr,Pm2AgIr,96.333,65.455,23.6,0.38676,96.333,64.409,23.193,0.38857,96.333,23.396,64.932,0.38766,cubic,0,10.3882799,H1a
mp-20664,Mn2Sb,Mn2Sb,86.556,88.623,33.333,0.32935,86.544,54.024,19.35,0.39596,86.55,26.342,71.746,0.36184,tetragonal,0,7.757811983,H4
mp-401,Sc2S3,Sc2S3,55.889,92.404,37.733,0.22444,55.705,90.609,36.866,0.2289,55.797,37.3,91.508,0.22666,orthorhombic,1.0676,2.872295472,H2
mp-972876,Sc3Cd,Sc3Cd,62.556,87.499,34.533,0.26688,62.528,87.418,34.498,0.26699,62.542,34.516,87.458,0.26693,hexagonal,0,4.405049166,H4
mp-23116,CuBiSeO,CuBiSeO,70.333,85.611,33,0.29713,66.698,81.772,31.556,0.29567,68.516,32.278,83.691,0.29642,tetragonal,0.345,8.627813977,H1a
mp-1029750,Sr3RuN3,Sr3RuN3,61.778,88.462,35.067,0.26134,61.218,87.684,34.76,0.26128,61.498,34.913,88.073,0.26131,hexagonal,0,4.774408965,H4
mp-1018009,Li2MgSi,Li2MgSi,51,103.24,44.4,0.16261,51,84.309,34.426,0.22448,51,39.413,94.02,0.19275,cubic,0.1001,1.703414267,H5
mp-19808,Eu(ZnGe)2,Eu(ZnGe)2,61.222,89.741,35.733,0.2557,61.105,86.704,34.311,0.26351,61.164,35.022,88.227,0.25959,tetragonal,0,7.094271864,H4
mp-3698,SrAlSi,SrAlSi,56,95.745,39.4,0.21504,48.937,90.607,38.025,0.19142,52.468,38.712,93.212,0.20391,hexagonal,0,3.162716702,H4
mp-1009639,PrN,PrN,93,73.853,27,0.36765,93,60.144,21.6,0.39222,93,24.3,67.059,0.37982,cubic,1.7765,5.969066765,H5
mp-2191,ErSb,ErSb,56.667,98.319,40.6,0.21083,56.667,83.028,33.058,0.2558,56.667,36.829,90.813,0.2329,cubic,0,8.217337073,H1a
mp-1029656,Na6WN4,Na6WN4,54.889,92.493,37.933,0.21915,54.469,91.275,37.386,0.22071,54.679,37.66,91.884,0.21993,tetragonal,1.2474,3.803920905,H1a
mp-1603,TmGa3,TmGa3,66.333,85.359,33.2,0.28553,66.333,84.385,32.759,0.28798,66.333,32.979,84.872,0.28675,cubic,0,8.199277552,H1a
mp-8842,CaSiPd,CaSiPd,68,89.623,35,0.28033,64.455,80.162,31.005,0.29272,66.228,33.003,84.904,0.28633,monoclinic,0,4.854722846,H4
mp-9562,LiBeAs,LiBeAs,54.778,98.952,41.267,0.19893,54.098,84.694,34.176,0.23907,54.438,37.721,91.931,0.21855,tetragonal,1.0072,3.457550891,H1a
mp-7568,ThSb2,ThSb2,74,88.904,34.2,0.29977,73.099,71.097,26.57,0.3379,73.55,30.385,80.122,0.31844,tetragonal,0,8.823106998,H4
mp-867868,Sm2AgIr,Sm2AgIr,88,70.509,25.8,0.36646,88,70.056,25.618,0.36732,88,25.709,70.283,0.36689,cubic,0,10.7378325,H1a
mp-979421,YErZn2,YErZn2,66.667,87.179,34,0.28205,66.667,81.843,31.59,0.29539,66.667,32.795,84.525,0.28869,cubic,0,7.093188424,H1a
mp-2338,TbZn2,TbZn2,60.222,91.58,36.733,0.24655,58.976,86.12,34.266,0.25662,59.599,35.5,88.857,0.25151,orthorhombic,0,7.875205617,H4
mp-22589,TiFeSn,TiFeSn,70,89.559,34.8,0.28676,70,74.948,28.356,0.32155,70,31.578,82.351,0.30393,cubic,0,6.125187877,H1a
mp-1025028,PrSiAg,PrSiAg,81.222,79.022,29.533,0.33785,80.336,71.302,26.368,0.35208,80.779,27.95,75.18,0.34489,tetragonal,0,6.57202876,H4
mp-2618,DyAg2,DyAg2,74.778,86,32.867,0.30832,73.454,73.152,27.418,0.33402,74.116,30.142,79.632,0.32093,tetragonal,0,9.622811121,H4
mp-861946,Er2MgAl,Er2MgAl,58.667,103.67,43,0.20548,58.667,74.041,28.706,0.28966,58.667,35.853,89.356,0.24615,cubic,0,6.610587768,H1a
mp-975906,LiAl3,LiAl3,63.222,88.072,34.733,0.26783,62.927,85.306,33.478,0.27406,63.075,34.106,86.692,0.27093,tetragonal,0,2.229478458,H4
mp-985585,Li3ClO,Li3ClO,52.667,93.451,38.8,0.20427,52.667,92.052,38.079,0.2087,52.667,38.44,92.753,0.20648,cubic,4.6814,2.010312574,H2
mp-4189,Dy6FeSb2,Dy6FeSb2,60.444,90.25,36.067,0.25115,59.494,86.878,34.568,0.25662,59.969,35.317,88.566,0.25386,hexagonal,0,8.715163914,H4
mp-675798,NaHoF4,NaHoF4,69.556,90.211,35.133,0.28384,67.24,76.307,29.106,0.31086,68.398,32.12,83.317,0.29698,tetragonal,6.8599,5.451083002,H4
mp-552292,SmBi2IO4,SmBi2IO4,69.778,96.628,38.067,0.2692,57.533,75.853,29.624,0.28026,63.655,33.845,86.25,0.27418,tetragonal,1.3305,8.140188773,H1a
mp-754727,LiNiS2,LiNiS2,68.444,87.215,33.867,0.28763,64.95,81.439,31.541,0.29102,66.697,32.704,84.328,0.28928,monoclinic,0,3.681475236,H4
mp-20151,Eu(AlGe)2,Eu(AlGe)2,57.667,92.661,37.6,0.23219,56.498,87.683,35.318,0.24134,57.082,36.459,90.178,0.2367,trigonal,0,5.177409053,H2
mp-864614,LiMg2Pt,LiMg2Pt,71.667,93.389,36.4,0.28282,71.667,68.179,25.412,0.34145,71.667,30.906,81.065,0.31148,cubic,0,6.267700039,H1a
mp-10445,Sc6FeTe2,Sc6FeTe2,67.667,91.732,36,0.27406,67.444,75.448,28.719,0.31355,67.556,32.36,83.712,0.29347,hexagonal,0,4.908904283,H4
mp-7875,Ba(MgSi)2,Ba(MgSi)2,49.222,96.148,40.933,0.17444,49,92.706,39.127,0.18467,49.111,40.03,94.434,0.17952,tetragonal,0,3.337110883,H4
mp-1751,ThSb,ThSb,78.333,103.42,40.4,0.27996,78.333,47.218,16.869,0.39954,78.333,28.635,76.574,0.33708,cubic,0,9.075899576,H1a
mp-2424,LaZn5,LaZn5,71,87.96,34,0.29352,70.74,74.929,28.308,0.32346,70.87,31.154,81.517,0.30829,hexagonal,0,6.967285166,H4
mp-1007,DySb,DySb,58.333,97.277,39.8,0.22207,58.333,81.052,31.95,0.26842,58.333,35.875,89.315,0.24481,cubic,0,7.906140581,H1a
mp-7131,PrTe,PrTe,58,90.718,36.6,0.23932,58,88.259,35.406,0.24638,58,36.003,89.492,0.24284,cubic,0,7.472847642,H1a
mp-11284,CaGa2,CaGa2,48.667,98.573,42.4,0.16242,45.456,92.182,39.665,0.16201,47.061,41.033,95.378,0.16222,hexagonal,0,4.589510607,H4
mp-20275,CeGeAu,CeGeAu,86.667,71.405,26.2,0.36268,86.667,70.229,25.726,0.36494,86.667,25.963,70.817,0.36381,cubic,0,9.009738638,H1a
mp-8161,CaPdF4,CaPdF4,74.667,82.619,31.4,0.31558,72.554,76.646,28.946,0.32393,73.61,30.173,79.638,0.31969,tetragonal,1.0092,4.366992164,H1a
mp-8566,Ag,Ag,86.333,72.861,26.8,0.35934,86.325,69.151,25.302,0.36649,86.329,26.051,71.011,0.36291,hexagonal,0,9.909383164,H4
mp-13010,YSn2,YSn2,59.111,94.018,38.067,0.23491,57.076,84.645,33.781,0.25283,58.094,35.924,89.354,0.24365,orthorhombic,0,6.795253809,H4
mp-12769,YSi2,YSi2,85.444,79.768,29.667,0.34441,84.115,64.202,23.384,0.37279,84.78,26.525,72.06,0.35834,tetragonal,0,4.139842478,H4
mp-4499,MgAlSi,MgAlSi,68.444,84.549,32.667,0.29412,68.172,81.524,31.339,0.30069,68.308,32.003,83.04,0.29739,orthorhombic,0,2.450316909,H4
mp-862366,Sc2TlAg,Sc2TlAg,71.667,88.072,34,0.29518,71.667,73.454,27.632,0.32918,71.667,30.816,80.858,0.31196,cubic,0,7.619468332,H1a
mp-20735,Ce3Sn,Ce3Sn,56,93.767,38.4,0.22093,56,87.198,35.147,0.24048,56,36.773,90.509,0.23063,cubic,0,8.13340593,H1a
mp-7466,CaCu2O3,CaCu2O3,80.556,89.266,33.933,0.31531,68.022,68.742,25.812,0.33157,74.289,29.873,79.026,0.32271,orthorhombic,0,4.689780283,H4
mp-10564,SrN2,SrN2,60.889,109.34,45.533,0.2007,57.664,65.933,25.176,0.30943,59.277,35.355,88.475,0.25124,tetragonal,0,4.089657496,H4
mp-1684,ZnAu,ZnAu,113.33,78.632,28.4,0.38436,113.33,22.978,7.8358,0.46621,113.33,18.118,51.604,0.42411,cubic,0,13.36738973,H1a