Material_ID,Formula,pretty_formula,KV ,EV ,GV ,PV ,KR ,ER ,GR ,PR ,bulk,shear,young,poisson,csyst,gap,density,y_cla
mp-7930,Zr3(Cu2Si)2,Zr3(Cu2Si)2,138.11,199.61,79.267,0.25912,137.71,181.48,70.869,0.28036,137.91,75.068,190.62,0.26963,hexagonal,0,6.883905229,H4
mp-12061,Lu(FeB)2,Lu(FeB)2,150,262.46,108.6,0.20838,146.85,93.798,33.655,0.39355,148.43,71.127,183.99,0.2934,tetragonal,0,9.213369311,H4
mp-22510,FeGe,FeGe,139.22,196.18,77.533,0.26515,133.8,186.39,73.506,0.26783,136.51,75.52,191.29,0.26646,monoclinic,0,7.720620388,H4
mp-5739,U2SN2,U2SN2,126.89,200.23,80.933,0.237,123.8,195.31,78.941,0.23707,125.35,79.937,197.77,0.23703,trigonal,0,10.78685107,H2
mp-631411,CaTa2Tl,CaTa2Tl,203.33,159.89,58.4,0.36894,203.33,133.06,47.831,0.39093,203.33,53.115,146.58,0.37985,cubic,0,11.6727633,H1a
mp-21211,InFeCo2,InFeCo2,232,159.59,57.6,0.38535,232,91.637,31.948,0.43417,232,44.774,126.2,0.40934,cubic,0,8.933954522,H1a
mp-20112,Ni3Sn,Ni3Sn,164.67,176.99,67,0.32086,164.28,169.12,63.655,0.32842,164.48,65.328,173.07,0.32462,hexagonal,0,9.471031455,H4
mp-553991,Ti(GaO2)4,Ti(GaO2)4,157.44,192.98,74.467,0.29572,143.49,171.45,65.901,0.30085,150.47,70.184,182.22,0.29816,monoclinic,2.4065,5.011361247,H2
mp-27888,Zr3GeO8,Zr3GeO8,198.78,180.86,67.067,0.34836,193.76,120.88,43.296,0.39602,196.27,55.181,151.36,0.37147,tetragonal,3.9783,5.758365861,H4
mp-10311,ZrVGe,ZrVGe,146,217.33,86.8,0.25191,145.64,150.87,56.831,0.32735,145.82,71.815,185.06,0.28848,tetragonal,0,6.945396775,H4
mp-19292,Co(AsO3)2,Co(AsO3)2,153.67,199.26,77.6,0.28388,133.39,173.68,67.685,0.28299,143.53,72.643,186.47,0.28347,trigonal,2.0657,5.428559383,H2
mp-1025385,AgPPt5,AgPPt5,190.56,165.68,61.133,0.35509,190.42,144.63,52.655,0.37341,190.49,56.894,155.23,0.36418,tetragonal,0,16.55107217,H4
mp-30845,SmPt3,SmPt3,160.67,179.24,68.2,0.31407,160.67,171.47,64.848,0.32212,160.67,66.524,175.37,0.31808,cubic,0,16.81218841,H1a
mp-1007821,GaCo2Ni,GaCo2Ni,188.67,237.85,92.2,0.28988,188.67,65.433,22.685,0.4422,188.67,57.443,156.45,0.36179,cubic,0,8.91475125,H1a
mp-768479,YScO3,YScO3,152.56,182.44,70.133,0.30068,150.84,179.32,68.87,0.30186,151.7,69.502,180.88,0.30127,hexagonal,3.3267,4.346959576,H1b
mp-3489,Nd(FeSi)2,Nd(FeSi)2,127.56,201.23,81.333,0.23707,122.62,193.22,78.076,0.23738,125.09,79.705,197.22,0.23722,tetragonal,0,6.569673812,H4
mp-1009770,RuN,RuN,232.67,137.36,49,0.40161,232.67,112.51,39.634,0.4194,232.67,44.317,125.01,0.41045,cubic,0,8.038617507,H1a
mp-1127,SmPt2,SmPt2,153.33,183.17,70.4,0.3009,153.33,176.08,67.276,0.30861,153.33,68.838,179.63,0.30475,cubic,0,15.32305515,H1a
mp-642750,NaV2O4,NaV2O4,145.56,191.44,74.733,0.2808,144.91,178.07,68.741,0.29521,145.24,71.737,184.79,0.28795,orthorhombic,0,4.232010565,H4
mp-568319,DyB6,DyB6,173.67,245.33,97,0.26456,173.67,76.811,26.927,0.42628,173.67,61.964,166.13,0.34056,cubic,0,5.498369219,H1a
mp-853,ErNi5,ErNi5,146.22,186.73,72.533,0.28717,145.38,182.05,70.489,0.2913,145.8,71.511,184.39,0.28923,hexagonal,0,9.544687898,H4
mp-28838,U3(SiC)2,U3(SiC)2,130,199.56,80.2,0.24415,130,188.62,74.957,0.25817,130,77.578,194.12,0.25112,tetragonal,0,11.78369301,H4
mp-20004,Zr2InC,Zr2InC,118.67,202.32,83.2,0.21585,118.01,199.31,81.782,0.21852,118.34,82.491,200.81,0.21718,hexagonal,0,6.892760961,H4
mp-894,ZnPt,ZnPt,172,178.37,67.2,0.32716,171.83,155.86,57.776,0.34882,171.91,62.488,167.21,0.3379,tetragonal,0,14.74253279,H4
mp-29157,Si3P2Pt,Si3P2Pt,123,210.81,86.8,0.21435,122.49,185.33,74.261,0.24782,122.74,80.531,198.24,0.23082,triclinic,0.5757,5.429211588,H5
mp-571163,MnSbRh2,MnSbRh2,163.78,177.5,67.267,0.31937,161.52,169.06,63.77,0.32555,162.65,65.518,173.29,0.32243,tetragonal,0,10.0719268,H4
mp-22435,CeBPt3,CeBPt3,171.67,172.2,64.6,0.33282,171.64,162.13,60.382,0.34257,171.65,62.491,167.18,0.33767,tetragonal,0,14.8230425,H4
mp-11021,GaAuO2,GaAuO2,164.56,185.61,70.733,0.31201,159.93,160.9,60.385,0.33232,162.24,65.559,173.33,0.32194,hexagonal,0,9.860740687,H4
mp-2879,SrSnO3,SrSnO3,137.67,189.56,74.6,0.27051,137.56,188.62,74.174,0.27147,137.61,74.387,189.09,0.27099,orthorhombic,1.7637,6.126942681,H2
mp-1025525,DyInPt2,DyInPt2,116.11,24.797,8.4667,0.46441,116.07,326.27,158.15,0.03151,116.09,83.31,201.68,0.21045,hexagonal,0,13.29457539,H4
mp-634965,NbO,NbO,175.11,220.97,85.667,0.28969,110.33,150.7,59.222,0.27235,142.72,72.444,185.88,0.28293,tetragonal,0,5.45052981,H4
mp-930,ZrP,ZrP,134.67,211.9,85.6,0.23775,134.67,168.61,65.287,0.29132,134.67,75.444,190.72,0.26396,cubic,0,5.449688528,H1a
mp-22220,LaLuO3,LaLuO3,146.78,184.46,71.467,0.29054,144.98,182.98,70.942,0.28964,145.88,71.204,183.72,0.2901,orthorhombic,4.4289,8.19610296,H2
mp-19170,PrNiO3,PrNiO3,143.89,186.3,72.533,0.28421,143.89,183.62,71.32,0.28731,143.89,71.927,184.96,0.28576,trigonal,0,7.140207995,H2
mp-36738,Fe2CoO4,Fe2CoO4,171.44,171.39,64.267,0.33339,171.44,162.32,60.469,0.3422,171.44,62.368,166.87,0.33778,trigonal,0,5.024293631,H2
mp-20131,YIn3,YIn3,195,157.31,57.6,0.36555,195,144.05,52.308,0.37688,195,54.954,150.71,0.37119,cubic,0,7.135476219,H1a
mp-2924,Ho(SiNi)2,Ho(SiNi)2,144.44,187.57,73.067,0.28357,143.96,181.72,70.454,0.28961,144.2,71.76,184.65,0.28658,tetragonal,0,7.569765326,H4
mp-10626,Yb(SiRh)2,Yb(SiRh)2,134.44,194.96,77.467,0.25832,133.69,186.87,73.742,0.26704,134.07,75.605,190.92,0.26265,tetragonal,0,8.649777219,H4
mp-989609,YWN3,YWN3,149.67,193.24,75.2,0.28481,138.76,175.95,68.267,0.28867,144.21,71.733,184.59,0.28667,orthorhombic,1.3564,7.503255654,H2
mp-961660,TiFeSe,TiFeSe,139.67,187.81,73.6,0.27588,139.67,186.9,73.182,0.27697,139.67,73.391,187.36,0.27642,cubic,0.9965,6.838010756,H5
mp-5836,ThSiO4,ThSiO4,173.67,190.7,72.4,0.31699,165.36,144.65,53.408,0.35421,169.52,62.904,167.94,0.33488,tetragonal,4.8735,6.52379772,H4
mp-2552,TeO3,TeO3,97.111,249.31,116.27,0.07213,83.438,176.34,76.821,0.14776,90.275,96.544,213.52,0.1058,trigonal,1.3007,5.995793548,H2
mp-1029338,LiV2N3,LiV2N3,149.67,213.99,84.8,0.26171,145.92,148.26,55.709,0.33066,147.79,70.254,181.94,0.29483,orthorhombic,0,4.067270464,H4
mp-8758,SmRhC2,SmRhC2,154.33,191.85,74.2,0.29281,133.78,176.57,68.969,0.28004,144.06,71.584,184.24,0.28685,orthorhombic,0,8.123948135,H4
mp-2460,Er2O3,Er2O3,154.56,191.74,74.133,0.29323,150.31,165.83,63.001,0.31612,152.43,68.567,178.88,0.30442,monoclinic,4.1283,9.37235488,H2
mp-1791,Al5Rh2,Al5Rh2,131.44,192.98,76.867,0.25531,131.12,191.13,76.024,0.25706,131.28,76.446,192.06,0.25618,hexagonal,0,5.229411844,H4
mp-35417,Li3TaO4,Li3TaO4,125.67,238.98,101,0.18305,72.406,177.79,81.5,0.090751,99.037,91.25,209.43,0.14756,tetragonal,1.5842,5.936820555,H1a
mp-998893,YC,YC,150,182.18,70.2,0.29758,150,178.36,68.503,0.30183,150,69.351,180.27,0.2997,cubic,0,5.071758965,H1a
mp-999516,MnP,MnP,125.22,216.12,89.133,0.21235,118.21,178.48,71.484,0.24836,121.72,80.309,197.49,0.22957,hexagonal,0,5.502604946,H4
mp-571622,Be12Pt,Be12Pt,132.67,220.2,90,0.22336,132.33,160.23,61.713,0.29819,132.5,75.856,191.1,0.25962,tetragonal,0,4.587850995,H4
mp-452,CoAs3,CoAs3,116,201.83,83.4,0.21001,116,199.47,82.192,0.21341,116,82.796,200.65,0.21171,cubic,0,6.662050642,H1a
mp-1179,DyNi5,DyNi5,146.67,184.29,71.4,0.29057,146.04,180.56,69.772,0.29394,146.36,70.586,182.43,0.29225,hexagonal,0,9.36010381,H4
mp-631424,ReW2Br,ReW2Br,197.67,154,56.2,0.37015,197.67,141.56,51.265,0.38064,197.67,53.733,147.8,0.37538,cubic,0,15.84953799,H1a
mp-570670,YOs2,YOs2,213.11,138.26,49.667,0.39187,212.04,136.16,48.872,0.39298,212.58,49.269,137.21,0.39242,hexagonal,0,14.30409282,H4
mp-1029269,Zn2MoN3,Zn2MoN3,138.33,100.39,36.4,0.37904,136.94,262.23,111.03,0.18085,137.64,73.717,187.65,0.27277,orthorhombic,0,5.879978752,H4
mp-1164,ThC,ThC,138.67,187.61,73.6,0.27451,138.67,186.27,72.983,0.27612,138.67,73.292,186.94,0.27531,cubic,0,10.55853393,H1a
mp-12385,Ba2YTaO6,Ba2YTaO6,134,192.6,76.4,0.26045,133.28,187.43,74.045,0.26563,133.64,75.223,190.02,0.26303,tetragonal,3.4657,6.839389322,H4
mp-12631,SrTcO3,SrTcO3,176,163.08,60.6,0.34557,176,161.88,60.103,0.3467,176,60.351,162.48,0.34613,cubic,0,6.143117993,H1a
mp-6915,As2PdO6,As2PdO6,152.44,195.22,75.867,0.28657,131.2,174.54,68.272,0.27827,141.82,72.069,184.89,0.28272,trigonal,0,5.869564293,H2
mp-3791,ScCo2Sn,ScCo2Sn,136,191.34,75.6,0.26551,136,185.36,72.811,0.27285,136,74.206,188.36,0.26917,cubic,0,7.798601407,H1a
mp-7064,Er2Si2O7,Er2Si2O7,165.22,184.32,70.133,0.31407,161.27,157.08,58.715,0.33766,163.25,64.424,170.8,0.32562,monoclinic,4.7986,5.795049727,H2
mp-1025323,Dy2Cr2C3,Dy2Cr2C3,149.67,191.03,74.2,0.28727,148.47,168.86,64.429,0.31044,149.07,69.315,180.04,0.2987,monoclinic,0,8.179075828,H4
mp-1016845,ZrCdO3,ZrCdO3,232,126.8,45,0.40891,232,118.83,42,0.41463,232,43.5,122.82,0.41176,cubic,0,5.806339459,H1a
mp-977582,ZrZnRh2,ZrZnRh2,174.33,172.02,64.4,0.33555,174.33,154.27,57.032,0.35251,174.33,60.716,163.2,0.34398,cubic,0,9.475241564,H1a
mp-1025161,InPPd5,InPPd5,164.56,176.83,66.933,0.32091,164.38,162.71,60.94,0.33503,164.47,63.937,169.81,0.32792,tetragonal,0,10.04257931,H4
mp-755300,TiO,TiO,207.33,140.38,50.6,0.38715,207.33,140.19,50.525,0.38731,207.33,50.563,140.28,0.38723,cubic,0,4.661596912,H1a
mp-6304,Sr2GaSbO6,Sr2GaSbO6,144.44,185.81,72.267,0.2856,144.44,179.73,69.521,0.29262,144.44,70.894,182.78,0.2891,tetragonal,1.3078,6.056970843,H1a
mp-971682,Si3N2,Si3N2,140.67,185.39,72.4,0.28034,140.67,184.12,71.818,0.28185,140.67,72.109,184.76,0.28109,cubic,0.1216,2.479026241,H5
mp-752463,NbNO,NbNO,191,184.27,68.8,0.3392,164.21,136.39,50.085,0.36157,177.6,59.442,160.43,0.34945,tetragonal,1.0384,4.942325901,H1a
mp-15800,Ti3PO2,Ti3PO2,166.44,191.22,73.067,0.30853,164.93,144.91,53.53,0.35356,165.69,63.298,168.44,0.33056,trigonal,0,4.905546829,H2
mp-15605,ScSi3Ni2,ScSi3Ni2,141.78,188.81,73.867,0.27804,136.65,182.27,71.327,0.2777,139.21,72.597,185.54,0.27787,tetragonal,0,4.79026609,H4
mp-1029258,Ca(ZnN)2,Ca(ZnN)2,120.56,200,81.733,0.2235,119.93,193.71,78.692,0.23081,120.24,80.213,196.86,0.22713,trigonal,0.6376,5.210456297,H2
mp-20268,TiGePd,TiGePd,151.11,183.41,70.667,0.29771,149.66,173.39,66.336,0.3069,150.38,68.501,178.41,0.30227,orthorhombic,0,7.962521838,H4
mp-8048,NdNi4B,NdNi4B,147.89,181.23,69.933,0.29576,147.52,178.85,68.896,0.29794,147.7,69.415,180.04,0.29685,hexagonal,0,8.385802131,H4
mp-22315,HfCoSn,HfCoSn,140.44,189.41,74.267,0.27522,138.85,180.58,70.363,0.28324,139.65,72.315,185.01,0.27919,hexagonal,0,11.31261416,H4
mp-999076,Ti2InNi,Ti2InNi,185.33,174.59,65,0.343,185.33,134.33,48.698,0.3792,185.33,56.849,154.73,0.36086,cubic,0,6.799537622,H1a
mp-980192,YbOs3,YbOs3,222.44,145.93,52.467,0.39066,221.67,111.55,39.385,0.41613,222.06,45.926,128.89,0.40326,tetragonal,0,19.49772438,H4
mp-864839,Zn2PdRh,Zn2PdRh,159.33,181.35,69.2,0.31031,159.33,163.04,61.318,0.32946,159.33,65.259,172.26,0.31981,cubic,0,10.03288699,H1a
mp-637771,ZrInNi4,ZrInNi4,161,175.59,66.6,0.31823,161,166.68,62.781,0.32745,161,64.691,171.15,0.32283,cubic,0,9.032171554,H1a
mp-865857,YbNbRu2,YbNbRu2,164.67,176.99,67,0.32086,164.67,160.32,59.922,0.33773,164.67,63.461,168.71,0.32924,cubic,0,11.62432833,H1a
mp-557762,TiS,TiS,129,198.47,79.8,0.24357,127.43,185.17,73.607,0.25782,128.22,76.704,191.85,0.25061,trigonal,0,4.353183531,H2
mp-1029536,MgZrN2,MgZrN2,150.78,203.64,79.867,0.2749,148.1,152.42,57.367,0.32847,149.44,68.617,178.53,0.30089,orthorhombic,1.3644,4.385208303,H2
mp-639659,InCuPt2,InCuPt2,172.33,170.85,64,0.33477,172.33,155.58,57.641,0.34954,172.33,60.82,163.26,0.34211,tetragonal,0,14.74314542,H4
mp-865249,TmSnRu2,TmSnRu2,155,174.77,66.6,0.31208,155,174.67,66.555,0.31219,155,66.578,174.72,0.31213,cubic,0,11.48740535,H1a
mp-570483,V5Si3,V5Si3,184,173.01,64.4,0.34328,183.35,137.44,49.977,0.37506,183.67,57.189,155.43,0.35896,hexagonal,0,5.286728798,H4
mp-20935,ZrSnIr,ZrSnIr,161.44,173.01,65.467,0.32139,158.78,169.52,64.111,0.32206,160.11,64.789,171.27,0.32172,hexagonal,0,11.33913552,H4
mp-11526,TmNi5,TmNi5,141.78,184.44,71.867,0.28319,141.32,182.09,70.839,0.28525,141.55,71.353,183.26,0.28421,hexagonal,0,9.623696283,H4
mp-19210,CoPtO2,CoPtO2,195.89,179.3,66.533,0.34745,161.31,138.08,50.865,0.35733,178.6,58.699,158.71,0.35189,trigonal,0,10.86846898,H2
mp-2123,Nb3Au2,Nb3Au2,172.78,166.29,62.067,0.33959,172.78,158.95,59.014,0.34667,172.78,60.54,162.63,0.34312,tetragonal,0,12.3323018,H4
mp-8039,AlF3,AlF3,126.67,205.98,83.8,0.22898,126.67,177.98,70.304,0.26581,126.67,77.052,192.19,0.24712,cubic,7.6926,2.891779725,H2
mp-754808,La2MgO4,La2MgO4,134.44,190.29,75.267,0.2641,131.83,186.27,73.651,0.26451,133.14,74.459,188.28,0.2643,tetragonal,2.4959,6.267411872,H4
mp-7524,NbPSe,NbPSe,130.67,194.33,77.6,0.25213,127.13,187.31,74.66,0.25443,128.9,76.13,190.82,0.25326,orthorhombic,0,6.322763655,H4
mp-27471,NbPS,NbPS,139.67,195.14,77,0.26714,131.95,177.65,69.633,0.27561,135.81,73.317,186.41,0.27124,orthorhombic,0,5.250193427,H4
mp-19082,TiMnO3,TiMnO3,162.11,179.13,68.067,0.31584,156.2,163.57,61.705,0.32547,159.16,64.886,171.37,0.32054,trigonal,1.9819,4.465568061,H2
mp-300,YbPt3,YbPt3,161.33,174.7,66.2,0.31952,161.33,165.09,62.09,0.32945,161.33,64.145,169.92,0.32447,cubic,0,18.68523618,H1a
mp-642659,V2H,V2H,192.44,175.91,65.267,0.34765,191.77,120.77,43.286,0.39504,192.11,54.277,148.81,0.37089,tetragonal,0,5.886072402,H4
mp-862334,Sc2IrRh,Sc2IrRh,152.67,175.35,67,0.30857,152.67,175.3,66.977,0.30863,152.67,66.989,175.32,0.3086,cubic,0,9.438425904,H1a
mp-10020,ScC,ScC,141.67,189.51,74.2,0.27704,141.67,174.97,67.601,0.29415,141.67,70.901,182.29,0.28554,cubic,0,3.677843547,H1a
mp-1016837,SnHgO3,SnHgO3,200.33,143.07,51.8,0.38097,200.33,142.51,51.579,0.38144,200.33,51.689,142.79,0.38121,cubic,0,8.970404074,H1a
mp-12666,Be12Pd,Be12Pd,124.33,221.39,92,0.20323,124.21,162.38,63.324,0.28212,124.27,77.662,192.82,0.2414,tetragonal,0,3.22098851,H4
mp-861663,LiRh2Pb,LiRh2Pb,129.67,191.99,76.6,0.25322,129.67,187.21,74.328,0.25937,129.67,75.464,189.61,0.25629,cubic,0,10.92433441,H1a
mp-864857,NbZnCo2,NbZnCo2,184.67,185.02,69.4,0.33301,184.67,120.84,43.438,0.39094,184.67,56.419,153.61,0.36136,cubic,0,8.770585089,H1a
mp-11696,As3W2,As3W2,135.89,204.25,81.733,0.24949,132.42,168.99,65.638,0.2873,134.15,73.686,186.85,0.26787,monoclinic,0,11.06042588,H4
mp-975284,RbIrO3,RbIrO3,99.667,207.18,89.8,0.15355,99.667,204.52,88.31,0.15799,99.667,89.055,205.85,0.15576,cubic,0,8.39208835,H1a
mp-567889,TiGe2,TiGe2,114.11,205.18,85.467,0.20033,109.25,194.26,80.697,0.20364,111.68,83.082,199.72,0.20194,orthorhombic,0,6.553899875,H4
mp-12480,ScPPt,ScPPt,153.56,184.41,70.933,0.29985,145.36,169.6,64.956,0.30553,149.46,67.945,177.01,0.30261,orthorhombic,0,9.381059823,H4
mp-755594,ZnReO4,ZnReO4,138.11,204.66,81.667,0.25302,116.34,176.91,70.958,0.24656,127.22,76.312,190.79,0.25006,orthorhombic,0,7.649351327,H4
mp-1018048,LaNiC2,LaNiC2,130.33,197.58,79.2,0.24734,119.91,186.34,75.075,0.24101,125.12,77.138,191.96,0.2443,orthorhombic,0,6.595556838,H4
mp-12931,SmTaO4,SmTaO4,151.11,182.06,70.067,0.2992,144.7,173.68,66.803,0.29995,147.9,68.435,177.87,0.29957,monoclinic,3.9805,8.298047497,H2
mp-866183,Ti2ZnRe,Ti2ZnRe,166,174.83,66,0.32447,166,156.96,58.461,0.34241,166,62.23,165.95,0.33338,cubic,0,9.382320288,H1a
mp-30656,TiGaNi,TiGaNi,148.11,195.72,76.467,0.27976,145.87,160.68,61.029,0.31642,146.99,68.748,178.43,0.29769,hexagonal,0,6.99189743,H4
mvc-13995,YTiO3,YTiO3,168.56,192.59,73.533,0.30956,156.44,143.43,53.231,0.3472,162.5,63.382,168.27,0.32741,hexagonal,0,4.716708576,H4
mp-752849,Y2Pb2O7,Y2Pb2O7,140.67,184.08,71.8,0.2819,140.67,180.73,70.276,0.28587,140.67,71.038,182.41,0.28388,cubic,1.2088,7.433625173,H5
mp-3854,Y(MnSi)2,Y(MnSi)2,127.33,200.9,81.2,0.23705,127.25,179.96,71.171,0.2643,127.29,76.185,190.54,0.25052,tetragonal,0,5.392623695,H4
mp-752496,TiOF,TiOF,159.56,181.23,69.133,0.3107,151.28,164.24,62.257,0.31905,155.42,65.695,172.75,0.31475,monoclinic,0,4.249252516,H4
mp-3405,NaAl11O17,NaAl11O17,155.11,194.81,75.467,0.29068,150.81,153.12,57.531,0.33078,152.96,66.499,174.25,0.31014,hexagonal,4.6222,3.118343913,H1b
mp-33551,LiFe5O8,LiFe5O8,159.22,178.88,68.133,0.31275,157.95,161.98,60.936,0.32908,158.59,64.535,170.48,0.32083,trigonal,1.1991,4.898361522,H2
mp-625054,AlHO2,AlHO2,125.78,221.25,91.667,0.20682,101.63,174.46,71.858,0.2139,113.7,81.762,197.86,0.20998,orthorhombic,5.2866,3.004164409,H2
mp-1848,Te2Ru,Te2Ru,123.67,194.17,78.4,0.23832,123.67,190.18,76.459,0.24369,123.67,77.43,192.18,0.241,cubic,0.141,8.752832136,H5
mp-20551,GaCo2Ni,GaCo2Ni,181,187.43,70.6,0.32741,179.97,121.91,43.944,0.3871,180.48,57.272,155.38,0.35652,tetragonal,0,8.82381798,H4
mp-568014,Nb3Bi,Nb3Bi,158,176.57,67.2,0.31375,158,164.42,61.972,0.32656,158,64.586,170.52,0.32012,cubic,0,10.35619995,H1a
mp-10700,MgNi3C,MgNi3C,175.33,174.98,65.6,0.33367,175.33,142.33,52.148,0.3647,175.33,58.874,158.84,0.34901,cubic,0,6.376007672,H1a
mp-1025266,Tb2Cr2C3,Tb2Cr2C3,149.67,187.49,72.6,0.29122,149.1,164.5,62.493,0.31613,149.39,67.546,176.1,0.30353,monoclinic,0,7.969868576,H4
mp-2323,BeCu,BeCu,142.33,212.25,84.8,0.25147,142.33,146.95,55.33,0.32793,142.33,70.065,180.57,0.28856,cubic,0,6.201946001,H1a
mp-30807,ZrNi4Sn,ZrNi4Sn,164.67,168.57,63.4,0.32939,164.67,162.98,61.041,0.33504,164.67,62.22,165.78,0.33221,cubic,0,8.884830502,H1a
mp-19181,BaHo2NiO5,BaHo2NiO5,139,191.56,75.4,0.27031,138.63,173.15,67.018,0.29183,138.82,71.209,182.43,0.28097,orthorhombic,0,8.06415397,H4
mp-16045,Sr(As2Rh3)2,Sr(As2Rh3)2,170.78,164.17,61.267,0.33978,170.76,158.64,58.966,0.34516,170.77,60.116,161.41,0.34247,hexagonal,0,9.294903045,H4
mp-553961,ScNbO4,ScNbO4,168.78,174.38,65.667,0.3278,164.81,153.37,57.021,0.3449,166.79,61.344,163.93,0.33619,monoclinic,3.3026,4.627890644,H2
mp-4410,Yb(Al2Mo)2,Yb(Al2Mo)2,118.56,196.6,80.333,0.22362,118.28,192.07,78.119,0.22935,118.42,79.226,194.34,0.22648,tetragonal,0,6.413992776,H4
mp-866163,YInRh2,YInRh2,174.33,159.06,59,0.34794,174.33,158.49,58.765,0.34848,174.33,58.883,158.77,0.34821,cubic,0,9.155973491,H1a
mp-1667,Co2Ge,Co2Ge,200.56,159.53,58.333,0.36742,198.66,122.57,43.865,0.39717,199.61,51.099,141.24,0.38206,hexagonal,0,9.080653263,H4
mp-10000,Hf2S,Hf2S,132.67,191.87,76.2,0.25896,129.98,181.27,71.504,0.26757,131.32,73.852,186.58,0.26321,hexagonal,0,11.03529358,H4
mp-9902,Sc2CoSi2,Sc2CoSi2,122.67,192.67,77.8,0.23822,122.39,190.96,77,0.23997,122.53,77.4,191.81,0.23909,monoclinic,0,4.219678721,H4
mp-979931,YNbRu2,YNbRu2,179,167.71,62.4,0.34384,179,142.66,52.174,0.36717,179,57.287,155.29,0.35541,cubic,0,8.990131402,H1a
mp-1018720,HfVSi,HfVSi,152.67,247.04,100.4,0.2303,152.31,88.737,31.626,0.4029,152.49,66.013,173.07,0.31084,tetragonal,0,8.891443486,H4
mp-5723,ZrAlNi,ZrAlNi,138.67,191.92,75.6,0.26932,138.67,171.71,66.369,0.29361,138.67,70.985,181.91,0.28135,hexagonal,0,6.078613595,H4
mp-34688,TiO2,TiO2,189.44,159.53,58.667,0.35965,173.94,147.28,54.194,0.35887,181.69,56.43,153.41,0.35928,monoclinic,1.9758,3.774912931,H4
mp-11449,HfMn2,HfMn2,192.89,153.01,55.933,0.36779,192.18,138.67,50.25,0.37974,192.53,53.092,145.87,0.37373,hexagonal,0,11.30554994,H4
mp-5921,TaAlNi2,TaAlNi2,191.67,169.85,62.8,0.3523,191.67,122.16,43.825,0.39377,191.67,53.312,146.37,0.37272,cubic,0,10.10964993,H1a
mp-4196,NdFeSi2,NdFeSi2,115.89,198.13,81.533,0.21505,113.77,193.53,79.543,0.21649,114.83,80.538,195.83,0.21577,orthorhombic,0,6.06999363,H4
mp-5840,LiScO2,LiScO2,135.11,210.52,84.867,0.24031,103.29,176.01,72.373,0.21598,119.2,78.62,193.35,0.22965,tetragonal,3.9435,3.337748169,H4
mp-864910,MgZrRh2,MgZrRh2,149,175.25,67.2,0.30397,149,174.85,67.021,0.30442,149,67.111,175.05,0.30419,cubic,0,8.024352279,H1a
mp-22639,U(NiP)2,U(NiP)2,193,163.59,60.2,0.35873,185.94,131.49,47.566,0.38214,189.47,53.883,147.65,0.37012,tetragonal,0,10.00807983,H4
mp-961652,ZrFeSb,ZrFeSb,143.33,178.82,69.2,0.29207,143.33,178.34,68.983,0.29263,143.33,69.092,178.58,0.29235,cubic,0,7.564337021,H1a
mp-5146,Zn(RhO2)2,Zn(RhO2)2,174,158.54,58.8,0.34814,174,157.89,58.531,0.34876,174,58.666,158.22,0.34845,cubic,1.0311,6.876168055,H5
mp-1786,Ti3Au,Ti3Au,139.33,183.39,71.6,0.28064,139.33,178.57,69.408,0.2864,139.33,70.504,180.99,0.28351,cubic,0,8.460278828,H1a
mp-20082,Yb(As2Rh3)2,Yb(As2Rh3)2,170.11,163.14,60.867,0.34016,169.72,158.74,59.049,0.34412,169.92,59.958,160.94,0.34214,hexagonal,0,10.3211623,H4