Material_ID,Formula,pretty_formula,KV ,EV ,GV ,PV ,KR ,ER ,GR ,PR ,bulk,shear,young,poisson,csyst,gap,density,y_cla
mp-981547,PrH3,PrH3,84.222,144.54,59.533,0.21397,84.204,68.854,25.245,0.36372,84.213,42.389,108.9,0.28448,tetragonal,0.2863,5.806968751,H1a
mp-980646,TmSi3,TmSi3,90.333,116.22,45.2,0.28558,90.33,93.349,35.153,0.32776,90.332,40.176,104.97,0.30633,cubic,0,6.077749271,H1a
mp-2689,ThFe5,ThFe5,89,121.63,47.8,0.27224,71.771,100.88,39.85,0.26574,80.386,43.825,111.26,0.26933,hexagonal,0,9.426560549,H4
mvc-3988,Ca2Fe2O5,Ca2Fe2O5,116.67,134.45,51.4,0.30792,76.43,66.833,24.675,0.35426,96.548,38.037,100.87,0.32588,orthorhombic,0.5686,4.003101675,H2
mp-468,AlF3,AlF3,50.111,140.84,68.267,0.031565,40.182,115.16,56.325,0.022326,45.147,62.296,128.01,0.027433,trigonal,7.7239,3.021262156,H2
mp-862261,Sc2ZnRu,Sc2ZnRu,108.67,99.686,37,0.34711,108.67,85.52,31.238,0.36883,108.67,34.119,92.659,0.35788,cubic,0,6.061237019,H1a
mp-867306,AlCuAu2,AlCuAu2,129.33,106.81,39.2,0.36236,129.33,47.941,16.667,0.43822,129.33,27.933,78.172,0.39926,cubic,0,12.90732538,H1a
mp-973270,Ho2RuAu,Ho2RuAu,109.33,93.404,34.4,0.35762,109.33,90.967,33.411,0.36133,109.33,33.906,92.187,0.35947,cubic,0,12.30410451,H1a
mp-865185,Mg(BeAs)2,Mg(BeAs)2,76,121.4,49.2,0.23377,75.745,106.31,41.986,0.26607,75.872,45.593,113.95,0.24968,trigonal,0.6106,3.955155826,H2
mp-4474,V4GaS8,V4GaS8,74,115.96,46.8,0.23884,74,114.07,45.882,0.24308,74,46.341,115.01,0.24096,cubic,0,3.822198757,H1a
mp-15778,MgNiSb,MgNiSb,85.667,107.86,41.8,0.29016,85.667,107.85,41.799,0.29017,85.667,41.799,107.86,0.29016,cubic,0,6.040044869,H1a
mp-9983,Ta2Se3,Ta2Se3,86.556,117.09,45.933,0.27454,76.356,103.87,40.787,0.27329,81.456,43.36,110.48,0.27395,monoclinic,0,9.705606076,H4
mp-755877,BaNdO3,BaNdO3,77.667,118.99,47.8,0.24466,77.667,106.43,41.848,0.27161,77.667,44.824,112.78,0.25799,cubic,0,5.783890189,H1a
mp-7572,MgSO4,MgSO4,74.222,120.35,48.933,0.22975,66.089,113.81,46.914,0.21298,70.156,47.924,117.11,0.22179,orthorhombic,5.7425,2.891903632,H2
mp-1755,ZnAu3,ZnAu3,125.11,84.024,30.267,0.38807,124.18,78.522,28.152,0.39462,124.65,29.209,81.279,0.39132,orthorhombic,0,15.73970163,H4
mp-861616,LiSc2Ir,LiSc2Ir,99,99.178,37.2,0.33303,99,98.728,37.01,0.33379,99,37.105,98.953,0.33341,cubic,0,6.829489678,H1a
mp-978953,SrAcTl2,SrAcTl2,183.33,44.374,15.2,0.45966,183.33,32.634,11.098,0.47033,183.33,13.149,38.525,0.46498,cubic,0,8.525710339,H1a
mp-10694,ScF3,ScF3,89,134.75,54,0.24766,89,73.561,27,0.36224,89,40.5,105.5,0.30244,cubic,6.11,2.51182358,H2
mp-8033,PuF3,PuF3,116.33,101.34,37.4,0.35481,115.83,72.289,25.892,0.39598,116.08,31.646,87.029,0.37505,hexagonal,0.0025,9.335509927,H1a
mp-5729,YAgSn,YAgSn,87.111,109.15,42.267,0.29117,85.538,104.92,40.494,0.29556,86.324,41.38,107.04,0.29334,hexagonal,0,7.216838755,H4
mp-1269,SmS,SmS,90.333,127.92,50.6,0.26399,90.333,79.291,29.287,0.35371,90.333,39.943,104.44,0.30731,cubic,0,6.644773941,H1a
mp-971662,Si,Si,76.333,113.25,45.2,0.25274,76.333,113.02,45.09,0.25324,76.333,45.145,113.13,0.25299,cubic,1.3167,2.005388219,H5
mp-4226,LiCrS2,LiCrS2,85.222,113.78,44.533,0.27748,80.922,104.19,40.528,0.28541,83.072,42.531,108.99,0.28133,trigonal,0.7271,3.206621052,H2
mp-20627,YbGa5Co,YbGa5Co,64,120.51,50.8,0.18616,63.993,119.53,50.28,0.18868,63.996,50.54,120.02,0.18742,tetragonal,0,7.976229789,H4
mp-1738,SmAs,SmAs,71,122.27,50.4,0.21298,71,109.97,44.277,0.24185,71,47.339,116.19,0.22725,cubic,0,7.056143551,H1a
mp-31178,DyAl3,DyAl3,71.444,120.18,49.267,0.21965,70.626,111.97,45.303,0.23577,71.035,47.285,116.09,0.22761,tetragonal,0,5.02033114,H4
mp-980004,SmGa2Co,SmGa2Co,86.444,109.92,42.667,0.28808,84.975,104.36,40.286,0.2953,85.71,41.476,107.15,0.29165,orthorhombic,0,7.715030134,H4
mp-20119,PtO2,PtO2,163.67,58.205,20.2,0.44073,163.67,46.686,16.071,0.45246,163.67,18.136,52.469,0.44657,cubic,0,8.36622568,H1a
mp-6270,Ba2LiReO6,Ba2LiReO6,83.333,117.41,46.4,0.26518,83.333,99.461,38.223,0.30108,83.333,42.311,108.56,0.28288,cubic,1.8665,6.705229381,H5
mp-1641,CrSb,CrSb,71.889,122.43,50.333,0.21617,71.556,108.44,43.465,0.24743,71.722,46.899,115.52,0.23156,hexagonal,0,7.008554256,H4
mp-1025291,Ti(NbSe2)2,Ti(NbSe2)2,73.556,117.73,47.733,0.23323,72.915,111.43,44.741,0.24529,73.235,46.237,114.6,0.23921,monoclinic,0,6.44551384,H4
mp-31328,MnInPd2,MnInPd2,127,116.4,43.2,0.34724,127,38.405,13.247,0.4496,127,28.223,78.831,0.39655,cubic,0,9.579941272,H1a
mp-989592,Sr6Sn2NF,Sr6Sn2NF,77.333,112.23,44.6,0.25813,77.333,112.05,44.515,0.25852,77.333,44.558,112.14,0.25833,cubic,0,4.558622443,H1a
mp-984357,CsKO3,CsKO3,105.67,96.502,35.8,0.34779,105.67,90.898,33.501,0.35663,105.67,34.651,93.709,0.35219,cubic,0,4.027296459,H1a
mp-753671,PNO,PNO,57.667,131.65,58.8,0.1195,49.965,117.03,52.735,0.10962,53.816,55.768,124.35,0.11489,orthorhombic,5.1829,2.63074627,H2
mp-987,ZnCu,ZnCu,114.33,136.37,52.4,0.30121,114.33,33.312,11.475,0.45144,114.33,31.938,87.652,0.37223,cubic,0,8.252022453,H1a
mp-2808,ZrRh,ZrRh,164.67,76.263,26.8,0.42281,164.67,25.793,8.75,0.47389,164.67,17.775,51.473,0.4479,cubic,0,8.907802213,H1a
mp-1169,ScCu,ScCu,81,111.33,43.8,0.27092,81,108.27,42.383,0.27723,81,43.092,109.8,0.27407,cubic,0,5.222540494,H1a
mp-865459,Lu2AgRu,Lu2AgRu,100.67,98.885,37,0.33628,100.67,95.086,35.412,0.34257,100.67,36.206,96.99,0.33942,cubic,0,11.45478518,H1a
mp-24205,SrHI,SrHI,35.889,42.546,16.333,0.30242,68.391,197.77,97.134,0.018037,52.14,56.734,124.9,0.10076,tetragonal,3.7366,4.157115098,H4
mp-21382,Dy2AlGe2,Dy2AlGe2,78.444,122.21,49.267,0.24034,77.692,100.45,39.1,0.28452,78.068,44.183,111.51,0.26193,tetragonal,0,7.770301641,H4
mp-9828,YbPPt,YbPPt,107.78,107.42,40.267,0.33388,77.44,96.753,37.45,0.29177,92.609,38.858,102.27,0.31595,hexagonal,0,11.24180284,H4
mp-7365,Sr(SiAu)2,Sr(SiAu)2,95.778,105.03,39.867,0.31724,91.67,98.008,37.073,0.32181,93.724,38.47,101.52,0.31947,tetragonal,0,8.775876477,H4
mp-2369,SnPd,SnPd,102.56,111.64,42.333,0.31857,99.294,81.311,29.817,0.36352,100.93,36.075,96.703,0.34031,orthorhombic,0,9.344015419,H4
mp-1025237,Ba2RuO4,Ba2RuO4,74.889,120.95,49.133,0.23083,66.752,110.28,45.027,0.22464,70.821,47.08,115.62,0.2279,tetragonal,0,6.548960279,H4
mp-9615,LiTiS2,LiTiS2,68.444,118.81,49.067,0.21069,67.569,115.57,47.563,0.21493,68.007,48.315,117.19,0.21279,trigonal,0,3.091693505,H2
mp-1025280,Sr2Cu(OF)2,Sr2Cu(OF)2,78.444,117.67,47.067,0.25,77.211,105.06,41.26,0.27321,77.828,44.163,111.42,0.26141,tetragonal,0,4.93129331,H4
mp-5222,ReTeS,ReTeS,93,106.78,40.8,0.30863,93,96.664,36.429,0.32677,93,38.614,101.76,0.31764,cubic,0.1333,8.676083165,H5
mp-2949,Ca(NiGe)2,Ca(NiGe)2,89.889,107.07,41.133,0.30148,89.76,100.4,38.216,0.31358,89.824,39.675,103.75,0.3075,tetragonal,0,5.992976571,H4
mp-1029660,Ca4ZrN4,Ca4ZrN4,87.222,111.09,43.133,0.28773,86.496,100.11,38.295,0.3071,86.859,40.714,105.64,0.2973,triclinic,1.2352,3.283018926,H5
mp-16720,ThAl2,ThAl2,81.333,111.83,44,0.27083,81.333,106.39,41.495,0.28198,81.333,42.747,109.12,0.27638,cubic,0,7.261067581,H1a
mp-1306,ThAl3,ThAl3,89.889,114.22,44.333,0.28822,88.933,93.405,35.249,0.32495,89.411,39.791,103.95,0.30623,hexagonal,0,6.08970506,H4
mp-8073,AsPd2,AsPd2,131.22,90.15,32.533,0.3855,113.12,72.981,26.205,0.39248,122.17,29.369,81.572,0.38872,orthorhombic,0,9.954771151,H4
mp-2849,US2,US2,90.778,104.33,39.867,0.30846,90.024,102.05,38.916,0.31108,90.401,39.392,103.19,0.30976,hexagonal,0,8.40631064,H4
mp-754823,ErTlO2,ErTlO2,92.111,118.01,45.867,0.28647,89.882,86.979,32.486,0.33872,90.996,39.176,102.78,0.31175,trigonal,1.6699,9.903567987,H2
mp-21894,LiSn4Ir,LiSn4Ir,69.111,119.42,49.267,0.212,68.797,113.11,46.13,0.22598,68.954,47.698,116.28,0.21894,tetragonal,0,8.703402647,H4
mp-983123,HfMgAu2,HfMgAu2,110,113.19,42.6,0.3285,110,65.377,23.333,0.40094,110,32.967,89.917,0.36376,cubic,0,13.16185832,H1a
mp-1019108,SmCoSi,SmCoSi,95.444,118.16,45.667,0.29367,77.734,93.002,35.754,0.3006,86.589,40.71,105.58,0.29677,tetragonal,0,7.287397863,H4
mp-1011375,CeSe2,CeSe2,69.222,118.02,48.533,0.21585,68.143,114.74,47.049,0.21936,68.683,47.791,116.38,0.21759,tetragonal,0,7.12158073,H4
mp-11621,ZnNiSb,ZnNiSb,102,96.632,36,0.34211,102,93.934,34.881,0.34651,102,35.44,95.285,0.34431,cubic,0,7.765793247,H1a
mp-13993,Ti3NiS6,Ti3NiS6,71.889,118.85,48.533,0.22445,71.052,110.5,44.529,0.2408,71.471,46.531,114.7,0.23252,trigonal,0,3.866461262,H2
mp-22673,MnInCu2,MnInCu2,106.67,123.4,47.2,0.30719,106.67,58.3,20.69,0.40891,106.67,33.945,92.068,0.35614,cubic,0,8.353283021,H1a
mp-1009829,Be2Si,Be2Si,105,123.6,47.4,0.30381,105,60.48,21.538,0.404,105,34.469,93.208,0.35205,cubic,0,2.080660213,H1a
mp-11504,MnZn3,MnZn3,88,121.85,48,0.26923,88,86.124,32.211,0.33689,88,40.105,104.45,0.30218,cubic,0,7.45097586,H1a
mp-569402,VP,VP,87.556,108.04,41.733,0.29435,87.405,101.45,38.824,0.30655,87.48,40.278,104.76,0.30042,hexagonal,0,4.849041531,H4
mp-9304,DyCuSeO,DyCuSeO,94.778,107.19,40.867,0.3115,88.163,96.84,36.767,0.31693,91.47,38.817,102.02,0.31411,tetragonal,1.1846,8.039124055,H1a
mp-865002,CaYRh2,CaYRh2,98.667,97.242,36.4,0.33574,98.667,97.226,36.393,0.33577,98.667,36.397,97.234,0.33575,cubic,0,6.874143833,H1a
mp-19226,NaFePO4,NaFePO4,84,111.07,43.4,0.27962,83.194,102.99,39.805,0.29367,83.597,41.603,107.05,0.28658,orthorhombic,3.8276,3.578322887,H2
mp-10,As,As,80,118.75,47.4,0.25261,80,99.372,38.428,0.29298,80,42.914,109.21,0.27247,cubic,0,6.064409537,H1a
mp-2396,HoCo2,HoCo2,119.67,84.08,30.4,0.3829,119.63,81.148,29.254,0.38695,119.65,29.827,82.616,0.38492,cubic,0,10.22290726,H1a
mp-1402,SmNi2,SmNi2,93.667,102.28,38.8,0.31801,93.667,98.518,37.185,0.3247,93.667,37.992,100.4,0.32135,cubic,0,9.355846442,H1a
mp-985440,CrGa3P4,CrGa3P4,100,100.71,37.8,0.33215,100,91.558,33.976,0.3474,100,35.888,96.161,0.33973,cubic,0,3.861710221,H1a
mp-796,Nb3Al,Nb3Al,161.33,59.277,20.6,0.43876,161.33,45.732,15.74,0.45276,161.33,18.17,52.537,0.44573,cubic,0,7.157298026,H1a
mp-13121,CeGe3Rh,CeGe3Rh,96.333,99.344,37.4,0.32812,95.86,98.195,36.936,0.32927,96.097,37.168,98.77,0.3287,tetragonal,0,7.783842299,H4
mp-12620,NdSeF,NdSeF,80.222,111.02,43.733,0.26934,80.105,107,41.881,0.27739,80.164,42.807,109.02,0.27335,tetragonal,0.9147,6.772435086,H1a
mp-867272,LiAlCu2,LiAlCu2,88,128.23,51,0.25714,88,78.014,28.846,0.35225,88,39.923,104.04,0.30296,cubic,0,5.265673911,H1a
mp-3363,Sc2Ni2Sn,Sc2Ni2Sn,102.56,104.15,39.133,0.33074,101.61,84.95,31.216,0.36066,102.08,35.175,94.653,0.34547,tetragonal,0,6.321145993,H4
mp-571310,ZrInPt2,ZrInPt2,160.33,90.012,32,0.40643,160.33,14.044,4.7273,0.4854,160.33,18.364,53.065,0.44484,cubic,0,13.36489174,H1a
mp-1025203,Ti2VSe4,Ti2VSe4,67.889,122.23,50.933,0.19992,66.388,110.65,45.265,0.22222,67.138,48.099,116.48,0.21084,monoclinic,0,5.597723896,H4
mp-1025375,YGa5Co,YGa5Co,63.667,119.63,50.4,0.18683,63.556,117.04,49.049,0.19308,63.611,49.725,118.34,0.18994,tetragonal,0,6.720370873,H4
mp-16750,HoCuPb,HoCuPb,73,114.86,46.4,0.23775,71.214,112.25,45.362,0.23729,72.107,45.881,113.56,0.23752,hexagonal,0,10.71509012,H4
mp-972088,Zr3Zn,Zr3Zn,94.111,115.25,44.467,0.2959,93.958,83.668,30.952,0.35158,94.034,37.709,99.789,0.32313,tetragonal,0,6.74406775,H4
mp-8470,NaPrO2,NaPrO2,98,116.63,44.8,0.30165,79.55,89.791,34.222,0.31188,88.775,39.511,103.22,0.30621,tetragonal,3.2002,5.018030413,H4
mp-11107,Ac2O3,Ac2O3,108.11,111.71,42.067,0.32778,97.661,75.389,27.487,0.37134,102.89,34.777,93.766,0.34811,trigonal,3.5619,8.974657782,H2
mp-11806,LiMgSnPt,LiMgSnPt,88,120.55,47.4,0.27168,88,85.799,32.074,0.3375,88,39.737,103.62,0.30376,cubic,0,8.350812616,H1a
mp-24093,CuH,CuH,108.67,89.9,33,0.36212,108.28,89.715,32.937,0.36191,108.47,32.969,89.808,0.36201,hexagonal,0.731,6.673766696,H1a
mp-754534,Li2CeO3,Li2CeO3,93.333,128.14,50.4,0.27119,82.037,78.306,29.199,0.34091,87.685,39.799,103.71,0.30288,orthorhombic,2.3502,4.347164979,H2
mp-10611,La3PbC,La3PbC,69.667,115.51,47.2,0.22365,69.667,113.88,46.386,0.22756,69.667,46.793,114.7,0.2256,cubic,0,7.332681497,H1a
mp-4972,LuInCu2,LuInCu2,95.667,108.08,41.2,0.3117,95.667,88.481,32.872,0.34585,95.667,37.036,98.408,0.32856,cubic,0,9.851871353,H1a
mp-568705,YbIr,YbIr,108.67,109.73,41.2,0.3317,108.67,68.436,24.528,0.39504,108.67,32.864,89.564,0.36263,cubic,0,16.04500516,H1a
mp-13447,Zn13Rh,Zn13Rh,88.556,106.86,41.133,0.29889,87.708,99.821,38.09,0.31032,88.132,39.612,103.35,0.30455,monoclinic,0,7.514887361,H4
mp-2210,ZrCu,ZrCu,117,90.492,33,0.37109,117,76.874,27.643,0.39049,117,30.321,83.731,0.38072,cubic,0,7.327660058,H1a
mp-10036,Ce3AlC,Ce3AlC,81.333,109.24,42.8,0.27615,81.333,105.96,41.299,0.28287,81.333,42.049,107.6,0.2795,cubic,0,6.346866214,H1a
mp-1018179,AlAu2,AlAu2,130.89,80.843,28.933,0.39706,128.36,68.548,24.291,0.411,129.63,26.612,74.723,0.40393,tetragonal,0,13.71312988,H4
mp-5920,LiAlGe,LiAlGe,61,119.65,51,0.17308,61,118.75,50.51,0.17554,61,50.755,119.2,0.17431,cubic,0.0869,3.245853602,H5
mp-1038,MgCu2,MgCu2,94.333,101.9,38.6,0.31996,94.333,96.393,36.246,0.32969,94.333,37.423,99.157,0.32481,cubic,0,5.816113247,H1a
mp-12674,MnAu,MnAu,117.33,115.91,43.4,0.33536,117.33,48.547,16.962,0.43104,117.33,30.181,83.393,0.38154,cubic,0,12.46483134,H1a
mp-570017,MgAu3,MgAu3,111,89.577,32.8,0.3655,110.86,86.052,31.392,0.37063,110.93,32.096,87.818,0.36806,orthorhombic,0,14.27358315,H4
mp-3838,Li5ReN4,Li5ReN4,71.556,115.13,46.733,0.23183,71.381,111.75,45.096,0.23907,71.468,45.915,113.45,0.23543,orthorhombic,2.8489,4.144535831,H2
mp-9172,Li4TiO4,Li4TiO4,80.222,109.73,43.133,0.27202,79.495,106.83,41.863,0.27601,79.859,42.498,108.29,0.27401,orthorhombic,4.5494,2.4975732,H2
mp-30251,YAuO2,YAuO2,126.78,100.33,36.667,0.36811,121.61,55.522,19.496,0.42391,124.19,28.081,78.34,0.39487,hexagonal,2.7001,7.736362768,H1b
mp-1731,LaCo5,LaCo5,134.89,83.095,29.733,0.39733,131.43,60.579,21.283,0.42318,133.16,25.508,71.931,0.40997,hexagonal,0,8.32090766,H4
mp-398,ErGa3,ErGa3,99.333,96.837,36.2,0.33752,99.333,94.335,35.155,0.34172,99.333,35.677,95.588,0.33962,cubic,0,8.113669639,H1a
mp-4913,LiGa2Rh,LiGa2Rh,124.67,124.31,46.6,0.33381,124.67,27.107,9.2593,0.46376,124.67,27.93,77.966,0.39577,cubic,0,7.334934055,H1a
mp-20999,La3InN,La3InN,73.333,112.49,45.2,0.24434,73.333,111.81,44.872,0.24589,73.333,45.036,112.15,0.24511,cubic,0,6.681349481,H1a
mp-758658,CaAl2(SiO4)2,CaAl2(SiO4)2,85.667,112.27,43.8,0.28158,80.752,99.907,38.61,0.2938,83.209,41.205,106.1,0.28748,triclinic,4.8122,2.677595607,H5
mp-982385,Np3S5,Np3S5,75.111,113.5,45.467,0.24815,72.405,110.22,44.217,0.2463,73.758,44.842,111.86,0.24724,orthorhombic,0,8.692555078,H4
mp-982557,HoGa3,HoGa3,71,116.32,47.4,0.22696,70.771,110.67,44.647,0.23937,70.886,46.024,113.51,0.23313,hexagonal,0,8.009291111,H4
mp-12665,Be12Ag,Be12Ag,113.33,142.91,55.4,0.28983,113.1,20.964,7.1349,0.46911,113.22,31.267,85.895,0.37355,tetragonal,0,3.104239748,H4
mp-631573,Re2AuSe,Re2AuSe,207.33,30.687,10.4,0.47533,207.33,3.5846,1.1972,0.49712,207.33,5.7986,17.235,0.48615,cubic,0,16.24262973,H1a
mp-867918,ErPaRu2,ErPaRu2,151.33,64.04,22.4,0.42947,151.33,53.108,18.421,0.44151,151.33,20.411,58.597,0.43547,cubic,0,12.51792509,H1a
mp-863713,Pm2NiIr,Pm2NiIr,115.33,84.847,30.8,0.37739,115.33,83.922,30.435,0.37872,115.33,30.617,84.385,0.37806,cubic,0,10.50840065,H1a
mp-504580,VCuO3,VCuO3,143.11,115.93,42.467,0.36499,133.01,16.607,5.6134,0.47919,138.06,24.04,68.164,0.41771,trigonal,0.6898,5.242412014,H2
mvc-11225,AlFeO3,AlFeO3,112.44,86.346,31.467,0.37202,112.44,86.31,31.453,0.37207,112.44,31.46,86.328,0.37204,cubic,0,3.955828732,H1a
mp-10584,Ba2LiOsO6,Ba2LiOsO6,86,113.64,44.4,0.27976,86,94.271,35.782,0.3173,86,40.091,104.1,0.29826,cubic,0,6.81691476,H1a
mp-31379,Zr2Sb,Zr2Sb,106.78,102.55,38.267,0.33993,106.3,77.718,28.197,0.37815,106.54,33.232,90.306,0.35873,tetragonal,0,7.373274835,H4
mp-976806,NiAu3,NiAu3,146.33,66.647,23.4,0.42409,146.33,57.399,20.005,0.43462,146.33,21.703,62.04,0.42934,hexagonal,0,16.52699395,H4
mp-11834,CuNiSb2,CuNiSb2,91.778,101.72,38.667,0.31529,91.561,98.803,37.421,0.32015,91.669,38.044,100.26,0.31771,trigonal,0,8.132512853,H2
mp-24658,SmH2,SmH2,72.667,117.61,47.8,0.23025,72.667,106.59,42.446,0.25554,72.667,45.123,112.15,0.24276,cubic,0,6.462585853,H1a
mp-1017552,Bi2O3,Bi2O3,119.44,101.27,37.267,0.3587,114.95,63.689,22.622,0.40766,117.2,29.944,82.783,0.38228,trigonal,1.4193,9.859373473,H2
mp-867887,Sm2CuIr,Sm2CuIr,111,87.084,31.8,0.36924,111,87.009,31.77,0.36936,111,31.785,87.047,0.3693,cubic,0,10.60445526,H1a
mp-865841,YbPaPt2,YbPaPt2,118.33,83.497,30.2,0.3824,118.33,80.336,28.963,0.38685,118.33,29.582,81.919,0.38462,cubic,0,15.61593778,H1a
mp-673624,MgNb2(PbO3)3,MgNb2(PbO3)3,87.444,126.97,50.467,0.25799,65.734,92.452,36.525,0.26559,76.589,43.496,109.72,0.26124,triclinic,2.1515,7.752245031,H5
mp-7954,Nd2O3,Nd2O3,95.778,114.62,44.067,0.30054,88.124,84.932,31.706,0.33937,91.951,37.886,99.934,0.31886,hexagonal,1.5797,5.275942424,H1a
mp-975427,RbAlO3,RbAlO3,72.333,112.22,45.2,0.24142,72.333,112.13,45.153,0.24164,72.333,45.176,112.18,0.24153,cubic,0,4.342584858,H1a
mp-13570,Mg(ScGa)2,Mg(ScGa)2,70.222,125.76,52.333,0.20152,70.117,100.48,39.838,0.26115,70.169,46.086,113.43,0.23059,tetragonal,0,4.167055053,H4
mp-833,CaPd2,CaPd2,94,101.39,38.4,0.32022,94,95.528,35.896,0.33062,94,37.148,98.472,0.3254,cubic,0,7.205483615,H1a
mp-1018635,ScPd3C,ScPd3C,157,83.018,29.4,0.41187,157,23.404,7.9327,0.47516,157,18.666,53.864,0.44282,cubic,0,8.358262044,H1a
mp-11201,Sc6FeSb2,Sc6FeSb2,72.111,113.94,46.067,0.23666,71.532,110.54,44.482,0.24246,71.822,45.275,112.24,0.23954,hexagonal,0,4.761133715,H4
mp-22050,Hf2In5,Hf2In5,72.444,113.62,45.867,0.2386,71.25,110.78,44.64,0.24085,71.847,45.254,112.2,0.23972,tetragonal,0,9.280933115,H4
mp-753619,BaSrO2,BaSrO2,74.778,110.5,44.067,0.25373,74.765,110.41,44.026,0.25388,74.771,44.046,110.45,0.2538,tetragonal,2.2833,5.325796312,H4
mp-6473,Ca5P3O12F,Ca5P3O12F,84.111,106.84,41.467,0.28829,80.931,104.45,40.645,0.2849,82.521,41.056,105.65,0.28663,hexagonal,5.5216,3.096097585,H1b
mp-754138,CsDyO2,CsDyO2,85.111,117.51,46.267,0.26989,82.49,91.747,34.895,0.31463,83.8,40.581,104.82,0.29153,hexagonal,2.835,7.198142226,H1b
mp-1025190,Co2NiSe4,Co2NiSe4,88.222,105.45,40.533,0.30079,83.418,101.6,39.167,0.29701,85.82,39.85,103.53,0.29895,monoclinic,0,7.064104604,H4
mp-1018717,HfSb2,HfSb2,92.556,111.1,42.733,0.29994,92.493,86.643,32.236,0.34387,92.524,37.485,99.075,0.32153,tetragonal,0,9.506405608,H4
mp-1018685,ErCuSn,ErCuSn,74.444,117.85,47.667,0.23616,64.709,108.72,44.558,0.21997,69.577,46.113,113.31,0.22858,hexagonal,0,9.036996457,H4
mp-1008558,AuN,AuN,139.33,2.3954,0.8,0.49713,139.33,123.98,45.862,0.35169,139.33,23.331,66.293,0.4207,cubic,0,11.32924255,H1a
mp-36066,PNO,PNO,57.111,128.42,57.067,0.12522,50.618,113.98,50.669,0.12472,53.865,53.868,121.2,0.12499,monoclinic,5.2455,2.614350422,H2
mp-568466,LiInSn,LiInSn,56,120.52,52.8,0.1413,56,120,52.5,0.14286,56,52.65,120.26,0.14208,cubic,0,5.118051549,H1a
mp-22177,DyInAu,DyInAu,82.222,112.31,44.133,0.27235,81.355,99.345,38.313,0.29648,81.789,41.223,105.88,0.28424,hexagonal,0,11.27321988,H4
mp-979044,Tm2CuAu,Tm2CuAu,92,99.74,37.8,0.31931,92,98.754,37.376,0.3211,92,37.588,99.247,0.3202,cubic,0,11.71370317,H1a
mp-865340,Tm2HgOs,Tm2HgOs,112.33,87.675,32,0.36992,112.33,82.992,30.138,0.37687,112.33,31.069,85.339,0.37338,cubic,0,14.08100347,H1a
mp-999027,Ti3Al,Ti3Al,110.33,110.87,41.6,0.33253,110.33,61.147,21.72,0.40763,110.33,31.66,86.688,0.36905,cubic,0,4.195926818,H1a
mp-1189,PrAl2,PrAl2,69.667,114.31,46.6,0.22653,69.667,111.67,45.291,0.23284,69.667,45.945,113,0.22968,cubic,0,4.888729399,H1a
mp-996987,LiCuO2,LiCuO2,86,123.11,48.8,0.26141,75.082,89.438,34.36,0.30147,80.541,41.58,106.43,0.27977,orthorhombic,0.5072,4.492561346,H2
mp-30619,Zr3Co,Zr3Co,104.22,92.321,34.133,0.35236,104.09,89.326,32.914,0.35697,104.15,33.524,90.826,0.35466,orthorhombic,0,6.915075693,H4
mp-3109,UGeTe,UGeTe,72.444,118.49,48.267,0.22741,70.124,105.33,42.144,0.24966,71.284,45.205,111.95,0.23825,tetragonal,0,9.828032905,H4
mp-2297,NdC2,NdC2,103.89,136.18,53.133,0.28152,96.423,46.593,16.412,0.41946,100.16,34.773,93.498,0.34441,tetragonal,0,5.850261244,H4
mp-865338,Tm2ZnPt,Tm2ZnPt,88.667,101.58,38.8,0.30906,88.667,100.64,38.387,0.31083,88.667,38.594,101.11,0.30994,cubic,0,11.81933305,H1a