Material_ID,Formula,pretty_formula,KV ,EV ,GV ,PV ,KR ,ER ,GR ,PR ,bulk,shear,young,poisson,csyst,gap,density,y_cla
mp-42,Ta,Ta,195.33,165.25,60.8,0.359,195.11,156.59,57.305,0.36624,195.22,59.053,160.93,0.36261,tetragonal,0,16.05411656,H4
mp-568095,Yb(PRu)2,Yb(PRu)2,121.11,224.16,94.067,0.19152,103.76,201.36,85.573,0.17655,112.43,89.82,212.79,0.18457,tetragonal,0,9.125815716,H4
mp-570923,YRe2,YRe2,203,158.87,58,0.36957,202.93,151.97,55.254,0.37519,202.97,56.627,155.43,0.37237,hexagonal,0,13.50377706,H4
mp-865931,Ti2TcPd,Ti2TcPd,179.33,172.55,64.4,0.33964,179.33,170.72,63.636,0.34134,179.33,64.018,171.63,0.34049,cubic,0,8.111005235,H1a
mp-14983,Si4P4Ru,Si4P4Ru,119.78,217.96,91.067,0.19671,119.6,199.53,81.644,0.22194,119.69,86.355,208.84,0.20919,triclinic,1.4917,3.657796674,H5
mp-2444,GaRh,GaRh,180.33,171.21,63.8,0.34177,180.33,170.42,63.47,0.3425,180.33,63.635,170.81,0.34213,cubic,0,10.17538363,H1a
mp-569794,Ta,Ta,194.89,165.05,60.733,0.35885,194.69,156.47,57.272,0.36605,194.79,59.003,160.78,0.36244,tetragonal,0,16.05565002,H4
mp-4656,Y(Al2Fe)4,Y(Al2Fe)4,122.78,209.69,86.267,0.21535,122.78,204.07,83.43,0.22298,122.78,84.848,206.89,0.21916,tetragonal,0,4.612205695,H4
mp-10721,Ti2C,Ti2C,139,213.48,85.8,0.24403,139,180.76,70.429,0.28326,139,78.115,197.37,0.26334,cubic,0,4.43976924,H1a
mp-1029779,ZnGeN2,ZnGeN2,150,193.3,75.2,0.28522,147.36,189.3,73.604,0.28591,148.68,74.402,191.3,0.28556,monoclinic,1.524,5.580117975,H4
mp-864631,LiNbRh2,LiNbRh2,174.33,176.29,66.2,0.33147,174.33,172.82,64.735,0.33478,174.33,65.468,174.55,0.33312,cubic,0,8.690848307,H1a
mp-196,Al5Co2,Al5Co2,125.56,206.72,84.333,0.2256,125.51,203.68,82.829,0.22953,125.53,83.581,205.2,0.22756,hexagonal,0,4.338445784,H4
mp-2379,CoSi2,CoSi2,176.67,181.27,68.2,0.32899,176.67,164.4,61.12,0.3449,176.67,64.66,172.89,0.3369,cubic,0,4.964463565,H1a
mp-973536,LuUO3,LuUO3,148.67,211.64,83.8,0.26274,148.67,169.96,64.897,0.30946,148.67,74.348,191.18,0.28568,cubic,0,10.39068019,H1a
mp-865379,LuSnRu2,LuSnRu2,162.67,182.28,69.4,0.31324,162.67,181.94,69.251,0.31359,162.67,69.326,182.11,0.31342,cubic,0,11.73295926,H1a
mp-20753,CeCoC2,CeCoC2,147.89,200.17,78.533,0.27442,139.96,187.97,73.646,0.27616,143.92,76.09,194.07,0.27526,monoclinic,0,7.309879479,H4
mp-3035,Ce(FeSi)2,Ce(FeSi)2,145.44,197.79,77.667,0.27335,142.58,190.08,74.379,0.27781,144.01,76.023,193.94,0.27555,tetragonal,0,6.676438986,H4
mp-20,Be,Be,123.67,274.75,121.6,0.12972,123.67,124.64,46.787,0.33202,123.67,84.194,205.86,0.22256,cubic,0,1.915010879,H1a
mp-16290,ZnNi3C,ZnNi3C,189.67,184.14,68.8,0.33819,189.67,142.69,51.9,0.37462,189.67,60.35,163.69,0.35616,cubic,0,7.879495611,H1a
mp-1029337,Zr2SeN2,Zr2SeN2,148,195.11,76.2,0.28028,147.09,187.74,72.923,0.28727,147.55,74.562,191.44,0.28375,trigonal,0.5074,6.119822353,H2
mp-864984,MnV3,MnV3,209.33,161.8,59,0.37118,209.33,137.6,49.482,0.39044,209.33,54.241,149.79,0.38074,cubic,0,6.851730115,H1a
mp-975206,RbSbO3,RbSbO3,89.333,221.96,102.2,0.0859,89.333,221.73,102.05,0.086334,89.333,102.13,221.84,0.086117,cubic,0,6.192016145,H1a
mp-5396,MnCo2Sb,MnCo2Sb,150.33,198.62,77.6,0.2798,150.33,180.18,69.286,0.30025,150.33,73.443,189.47,0.28994,cubic,0,8.953687287,H1a
mp-1018060,GaCo2Ni,GaCo2Ni,178.33,200.56,76.4,0.31256,167.75,148.05,54.717,0.35291,173.04,65.558,174.62,0.33181,tetragonal,0,8.914342447,H4
mp-11883,MgIr2,MgIr2,195.67,176.53,65.4,0.34963,195.28,141.78,51.409,0.37899,195.47,58.404,159.34,0.36414,hexagonal,0,13.6497022,H4
mp-978009,HgOs,HgOs,192.78,166.19,61.267,0.35632,192.71,156.09,57.177,0.365,192.75,59.222,161.16,0.36065,hexagonal,0,18.73669619,H4
mp-865050,HfMgRh2,HfMgRh2,156,185.85,71.4,0.30145,156,185.52,71.255,0.3018,156,71.328,185.68,0.30162,cubic,0,10.44781789,H1a
mp-769096,MnP4,MnP4,121,217.13,90.4,0.20093,116.5,198.96,81.854,0.21535,118.75,86.127,208.08,0.20796,monoclinic,0,3.976097652,H4
mp-865434,LuZrRu2,LuZrRu2,157,191.41,73.8,0.29681,157,178.39,68.053,0.31063,157,70.927,184.93,0.30368,cubic,0,10.7764773,H1a
mp-2465,DyPt3,DyPt3,172.33,181.69,68.6,0.32428,172.33,167.9,62.759,0.33763,172.33,65.679,174.83,0.33092,cubic,0,17.73251254,H1a
mp-570832,SrPt5,SrPt5,163.33,184.21,70.2,0.31203,158.4,180.52,68.899,0.31005,160.86,69.55,182.37,0.31106,hexagonal,0,15.31613147,H4
mp-961706,TiSiPt,TiSiPt,165,189.94,72.6,0.30814,165,169.13,63.625,0.32916,165,68.112,179.62,0.31856,cubic,0.9701,8.767714392,H5
mp-865519,YTaRu2,YTaRu2,177.67,185.62,70,0.32587,177.67,156.39,57.783,0.35329,177.67,63.892,171.16,0.33944,cubic,0,11.11434308,H1a
mp-1025339,Y2Fe2Si2C,Y2Fe2Si2C,127.22,212.02,86.733,0.22225,124.15,195.93,79.2,0.23696,125.68,82.967,204.01,0.22947,monoclinic,0,5.518674361,H4
mp-10284,YSi3Ni,YSi3Ni,121.44,209.25,86.267,0.21283,117.54,205.56,85.046,0.20853,119.49,85.656,207.41,0.21071,orthorhombic,0,4.690887479,H4
mp-1549,TbPt3,TbPt3,173.33,180.41,68,0.32653,173.33,167.19,62.421,0.33924,173.33,65.211,173.83,0.33285,cubic,0,17.5190101,H1a
mp-12985,PrCo2B2C,PrCo2B2C,176.22,188.09,71.133,0.32211,174.48,156.46,57.926,0.35055,175.35,64.53,172.44,0.33611,tetragonal,0,7.087022697,H4
mp-569974,Nd(NiP)2,Nd(NiP)2,129,208.67,84.8,0.23039,126.35,196.51,79.185,0.2408,127.68,81.993,202.61,0.23552,tetragonal,0,7.231428011,H4
mp-556253,Tm2O3,Tm2O3,158.44,198.06,76.667,0.29167,154.3,171.55,65.243,0.3147,156.37,70.955,184.9,0.30293,monoclinic,4.2003,9.6427244,H2
mp-11705,Dy2Fe2Si2C,Dy2Fe2Si2C,128,211.59,86.4,0.22449,125.42,194.55,78.357,0.24145,126.71,82.379,203.12,0.23283,monoclinic,0,7.804425283,H4
mp-22503,ZrCo2Sn,ZrCo2Sn,153,190.73,73.8,0.29223,153,183.34,70.502,0.30028,153,72.151,187.05,0.29624,cubic,0,8.703696989,H1a
mp-984745,CsSnO3,CsSnO3,219.56,144.93,52.133,0.38998,219.55,138.54,49.66,0.39483,219.55,50.897,141.74,0.3924,cubic,0,6.372339584,H1a
mp-7918,HfGeS,HfGeS,127.44,204.72,83.067,0.23227,127.33,200.69,81.096,0.23732,127.39,82.082,202.71,0.23479,tetragonal,0,8.927945804,H4
mp-2752,Nb3Au,Nb3Au,183.67,183.49,68.8,0.33349,183.67,149.48,54.782,0.36435,183.67,61.791,166.68,0.34875,cubic,0,10.8780197,H1a
mp-19306,Fe3O4,Fe3O4,176,174.58,65.4,0.33468,176,169.14,63.119,0.33983,176,64.259,171.86,0.33725,cubic,1.00E-04,4.94999305,H5
mp-866037,GaNiRh2,GaNiRh2,199.67,206.57,77.8,0.32757,199.67,101.31,35.789,0.41543,199.67,56.794,155.63,0.37009,cubic,0,10.30421407,H1a
mp-36086,Li3NbO4,Li3NbO4,125.89,231.03,96.733,0.19414,90.414,194.28,85.074,0.14186,108.15,90.904,213.03,0.17172,tetragonal,1.0371,3.951811516,H1a
mp-20492,ScSiRh,ScSiRh,148.56,193.76,75.533,0.28262,147.32,186.59,72.385,0.2889,147.94,73.959,190.18,0.28574,orthorhombic,0,6.02227033,H4
mp-7225,CeAl2Pt3,CeAl2Pt3,146.44,197.56,77.467,0.27515,140.01,188.65,73.955,0.27544,143.23,75.711,193.11,0.27529,hexagonal,0,11.90216522,H4
mp-1016841,HfHgO3,HfHgO3,192.33,170.88,63.2,0.35192,192.33,150.27,54.85,0.36979,192.33,59.025,160.64,0.3608,cubic,0,10.12043026,H1a
mp-1018071,MnFe2Ge,MnFe2Ge,217,242.75,92.4,0.31356,217,31.78,10.769,0.47559,217,51.584,143.39,0.38987,cubic,0,8.58730332,H1a
mp-754223,Ta2CuO6,Ta2CuO6,147.56,219.25,87.533,0.25236,121.93,177.21,70.445,0.25778,134.75,78.989,198.23,0.25481,monoclinic,0,7.768078125,H4
mp-569304,C,C,221.67,414.5,174.4,0.18835,4.9288,5.7455,2.2001,0.30572,113.3,88.3,210.27,0.19068,trigonal,2.6904,1.274371018,H2
mp-29455,Ga4GeO8,Ga4GeO8,159.56,197.06,76.133,0.29416,144.79,177.52,68.504,0.29566,152.17,72.319,187.29,0.29487,monoclinic,2.1831,5.417313668,H2
mp-865743,Ga2IrRh,Ga2IrRh,194.33,160.73,59,0.36215,194.33,157.45,57.676,0.36497,194.33,58.338,159.09,0.36356,cubic,0,12.6917658,H1a
mp-1016881,CdSnO3,CdSnO3,164.67,182.55,69.4,0.31523,164.67,175.48,66.349,0.32239,164.67,67.875,179.03,0.3188,cubic,0,6.938980318,H1a
mp-974565,ReP3,ReP3,203.67,191.31,71.2,0.34345,203.67,111.68,39.641,0.40861,203.67,55.42,152.43,0.37526,cubic,0,8.527854058,H1a
mp-4595,VFe2Si,VFe2Si,245.67,200.75,73.6,0.3638,245.67,37.914,12.859,0.47428,245.67,43.229,122.5,0.41689,cubic,0,7.112631391,H1a
mp-20237,CoNiSn,CoNiSn,160.78,184,70.267,0.30927,160.26,179.14,68.181,0.3137,160.52,69.224,181.57,0.31147,hexagonal,0,9.439958398,H4
mp-3896,Y(SiIr)2,Y(SiIr)2,180.44,168.98,62.867,0.34393,180.39,167.58,62.289,0.34517,180.42,62.578,168.28,0.34455,tetragonal,0,10.41006246,H4
mp-2229,ZnO,ZnO,172.33,180.29,68,0.32564,172.33,167.09,62.421,0.3384,172.33,65.211,173.72,0.33199,cubic,1.0501,6.619789653,H5
mp-924129,ZrNiSn,ZrNiSn,151.67,187.38,72.4,0.29408,151.67,187.06,72.257,0.29443,151.67,72.329,187.22,0.29426,cubic,0.5202,7.6235807,H5
mp-1009820,SnC,SnC,120.67,215.85,89.8,0.20186,120.67,195.5,79.476,0.22997,120.67,84.638,205.8,0.21575,cubic,0.6337,6.597289925,H5
mp-1518,CeRh3,CeRh3,153.33,187.22,72.2,0.29651,153.33,184.95,71.192,0.29897,153.33,71.696,186.08,0.29773,cubic,0,11.04864804,H1a
mp-754375,NaTi2O3,NaTi2O3,143,200.14,79,0.26673,140.09,186.8,73.095,0.27777,141.55,76.047,193.49,0.27217,trigonal,0,4.38300696,H2
mp-505297,NbSbRu,NbSbRu,168,176.48,66.6,0.32492,168,176.47,66.596,0.32493,168,66.598,176.48,0.32493,cubic,0.6232,8.790458727,H5
mp-775296,TiMnO4,TiMnO4,168.56,190.3,72.533,0.31183,162.74,165.43,62.166,0.33058,165.65,67.349,177.93,0.32097,tetragonal,0.2933,4.058164755,H1a
mp-2049,ZrMo2,ZrMo2,192,161.54,59.4,0.35977,192,158.66,58.235,0.36227,192,58.818,160.1,0.36102,cubic,0,8.470043894,H1a
mp-32662,WO3,WO3,151.33,193.1,75,0.28733,148.87,182.89,70.602,0.29524,150.1,72.801,188.01,0.29124,hexagonal,1.5029,6.107562341,H1a
mp-571053,Al5Mo,Al5Mo,120,208.25,86,0.21076,116.96,205.4,85.067,0.20731,118.48,85.533,206.83,0.20905,trigonal,0,4.120404601,H2
mp-10049,MnAsRu,MnAsRu,164.22,180.49,68.533,0.31682,162.89,177.92,67.498,0.31795,163.55,68.016,179.21,0.31738,hexagonal,0,8.578122907,H4
mp-2486,UC2,UC2,158.44,236.42,94.467,0.25132,151.7,128.66,47.348,0.35865,155.07,70.907,184.59,0.30161,tetragonal,0,11.77880776,H4
mp-753298,PrYO2,PrYO2,123.56,206.5,84.533,0.22144,120.59,202.77,83.118,0.21976,122.07,83.825,204.64,0.22061,trigonal,0,6.960996552,H2
mp-1018734,IrN,IrN,225.67,140.2,50.2,0.39645,225.67,131.9,47.02,0.40259,225.67,48.61,136.06,0.39951,cubic,0,14.86100362,H1a
mp-1029404,KGe2N3,KGe2N3,135.33,204.25,81.8,0.24846,134.36,189.47,74.889,0.26498,134.85,78.345,196.9,0.25664,orthorhombic,1.5723,4.640113499,H2
mp-31411,Th(Al2Cr)4,Th(Al2Cr)4,115,209.97,87.8,0.1957,114.97,206.43,85.958,0.20074,114.98,86.879,208.2,0.19822,tetragonal,0,5.331066655,H4
mp-6794,LaB2Rh2C,LaB2Rh2C,204.44,170.57,62.667,0.36095,204.31,130.71,46.906,0.39337,204.38,54.786,150.88,0.37696,tetragonal,0,7.956045929,H4
mp-3666,LiTaO3,LiTaO3,124.11,204.55,83.467,0.22532,122.37,202.71,82.814,0.22391,123.24,83.14,203.63,0.22462,trigonal,3.7746,7.178371518,H2
mp-776250,Zr2N2O,Zr2N2O,169,209.97,81.2,0.29293,149.76,152.31,57.239,0.33049,159.38,69.22,181.4,0.31031,triclinic,0.8555,5.740629283,H5
mp-977117,NaTeO3,NaTeO3,134.33,207.71,83.6,0.24229,134.33,186.28,73.402,0.26889,134.33,78.501,197.11,0.25545,cubic,0,4.904352468,H1a
mp-1025457,HfAl5Ni2,HfAl5Ni2,130.33,200.89,80.8,0.24311,130.33,198,79.404,0.24679,130.33,80.102,199.45,0.24495,tetragonal,0,6.099016162,H4
mp-1025413,ThSi2Ni,ThSi2Ni,139.44,198.22,78.467,0.26308,139.02,189.87,74.611,0.27238,139.23,76.539,194.06,0.26771,orthorhombic,0,8.192189986,H4
mp-16519,UAlNi4,UAlNi4,168.67,181.7,68.8,0.32046,168.67,168.4,63.137,0.3336,168.67,65.969,175.08,0.327,cubic,0,10.17626012,H1a
mp-867842,ScInRh2,ScInRh2,148.33,189.02,73.4,0.28762,148.33,187.55,72.734,0.28927,148.33,73.067,188.29,0.28844,cubic,0,8.996423241,H1a
mp-754752,NbNO,NbNO,184.44,175.62,65.467,0.34131,183.35,153.74,56.512,0.36025,183.9,60.989,164.75,0.35068,monoclinic,1.5526,4.833779873,H4
mp-569416,C,C,222.33,413.24,173.6,0.19022,2.9683,4.9805,2.0406,0.22035,112.65,87.82,209.12,0.19061,trigonal,1.547,1.583138478,H2
mp-1606,NbAu2,NbAu2,175.22,186.1,70.333,0.32299,175.11,154.75,57.199,0.35272,175.17,63.766,170.6,0.33768,hexagonal,0,15.18308513,H4
mp-550008,ScBiO3,ScBiO3,123.33,216.4,89.6,0.20757,123.33,189.58,76.211,0.24381,123.33,82.905,203.19,0.22542,cubic,1.0351,7.405007405,H5
mp-14433,NaGe2N3,NaGe2N3,135.89,199.65,79.533,0.25513,135.09,192.34,76.164,0.26269,135.49,77.849,196.01,0.25889,orthorhombic,2.3393,4.627617988,H2
mp-972396,Ti2MnRe,Ti2MnRe,167.33,176.86,66.8,0.32384,167.33,174.55,65.812,0.32614,167.33,66.306,175.71,0.32499,cubic,0,9.754199781,H1a
mp-15607,Ca(BC)2,Ca(BC)2,153.56,237.78,95.733,0.24191,96.448,166.29,68.563,0.21265,125,82.148,202.16,0.23046,tetragonal,0,2.601914969,H4
mp-2772,ZrAl2,ZrAl2,113.67,208.71,87.4,0.19398,113.6,207.68,86.876,0.1953,113.63,87.138,208.2,0.19464,hexagonal,0,4.520876148,H4
mp-865162,MgGeRh2,MgGeRh2,161.67,179.38,68.2,0.31508,161.67,178.97,68.024,0.31549,161.67,68.112,179.17,0.31529,cubic,0,8.749935789,H1a
mp-20272,GdPt3,GdPt3,161,182.5,69.6,0.31107,161,176.7,67.081,0.31708,161,68.34,179.61,0.31407,cubic,0,17.25689109,H1a
mp-862364,Sc2OsPt,Sc2OsPt,155.33,184.84,71,0.30168,155.33,181.59,69.567,0.30516,155.33,70.284,183.22,0.30341,cubic,0,11.46403326,H1a
mp-5112,Pr(CoSi)2,Pr(CoSi)2,119.78,214.9,89.467,0.20098,116.8,196.11,80.36,0.22017,118.29,84.913,205.55,0.21038,tetragonal,0,6.639630147,H4
mp-756134,ZrSeO,ZrSeO,144.67,194.46,76.2,0.27597,142.13,186.98,72.998,0.28073,143.4,74.599,190.72,0.27833,tetragonal,0.5986,6.722708971,H1a
mp-1009848,TcC,TcC,237.67,126.45,44.8,0.41132,237.67,126.01,44.634,0.41163,237.67,44.717,126.23,0.41148,cubic,0,7.346369252,H1a
mp-5967,TiCoSb,TiCoSb,141.33,192.91,75.8,0.27251,141.33,190.43,74.655,0.27543,141.33,75.227,191.67,0.27397,cubic,1.0675,7.416116762,H5
mp-975044,Li(SiRh)2,Li(SiRh)2,157.89,188.25,72.333,0.30128,156.49,174.79,66.521,0.31383,157.19,69.427,181.55,0.3075,tetragonal,0,6.490064022,H4
mp-13452,BePd2,BePd2,166.33,184.17,70,0.31547,166.23,166.72,62.544,0.33283,166.28,66.272,175.5,0.32409,tetragonal,0,9.646193893,H4
mp-505249,Th(NiP)2,Th(NiP)2,153,187.16,72.2,0.29612,152.32,181.27,69.632,0.30166,152.66,70.916,184.22,0.29888,tetragonal,0,8.985175467,H4
mp-5200,PrBRh3,PrBRh3,164,182.92,69.6,0.3141,164,170.59,64.294,0.32664,164,66.947,176.79,0.32034,cubic,0,9.774088804,H1a
mp-30183,ZrAl5Ni2,ZrAl5Ni2,120.67,204.93,84.2,0.21694,120.66,202.14,82.79,0.22079,120.66,83.495,203.54,0.21886,tetragonal,0,4.838724853,H4
mp-19741,CeNiC2,CeNiC2,156,194.81,75.4,0.29187,144.34,176.49,68.082,0.2962,150.17,71.741,185.66,0.29394,orthorhombic,0,7.083700908,H4
mp-5933,BaTiO3,BaTiO3,140.11,195.81,77.267,0.26708,139.83,188.19,73.761,0.27569,139.97,75.514,192.01,0.27136,hexagonal,1.7261,5.681509364,H1a
mp-862369,Sc2IrRu,Sc2IrRu,157,181.92,69.6,0.30688,157,180.44,68.95,0.30845,157,69.275,181.18,0.30767,cubic,0,9.519985978,H1a
mp-2152,YNi5,YNi5,148.22,188.85,73.333,0.28764,147.57,184.97,71.635,0.29108,147.89,72.484,186.92,0.28936,hexagonal,0,7.801971483,H4
mp-978851,SrAsO3,SrAsO3,117.67,207.85,86.2,0.2056,117.67,201.84,83.12,0.21411,117.67,84.66,204.85,0.20984,cubic,0,5.566876225,H1a
mp-10379,Hf3(Cu2Ge)2,Hf3(Cu2Ge)2,143.22,195.32,76.733,0.27271,142.93,184.37,71.739,0.28501,143.07,74.236,189.87,0.27882,hexagonal,0,10.98268693,H4
mp-11583,Zr2SN2,Zr2SN2,159.67,181.39,69.2,0.31065,158.24,177.95,67.786,0.31258,158.95,68.493,179.67,0.31161,hexagonal,0.7555,5.411485945,H1a
mp-1029385,Li2SnN2,Li2SnN2,116.56,215.36,90.333,0.19205,111.84,197.93,82.125,0.20503,114.2,86.229,206.67,0.19837,trigonal,1.6913,5.147801511,H2
mp-865548,TiInCo2,TiInCo2,159.33,182.72,69.8,0.30887,159.33,175.99,66.869,0.31591,159.33,68.335,179.36,0.31238,cubic,0,8.593805564,H1a
mp-886,Ga2O3,Ga2O3,156.33,196.65,76.2,0.29035,154.24,166.86,63.221,0.31969,155.29,69.711,181.91,0.30476,monoclinic,2.0406,5.680273183,H2
mp-5622,Nd(CoP)2,Nd(CoP)2,124.67,221.12,91.8,0.20438,109.5,188.77,77.832,0.21267,117.08,84.816,204.96,0.20824,tetragonal,0,7.238951757,H4
mp-973181,Mn3Zn,Mn3Zn,181.44,229.63,89.067,0.28907,180.92,93.233,32.965,0.41411,181.18,61.016,164.57,0.34861,tetragonal,0,8.124713191,H4
mp-22478,FeGe,FeGe,146.56,190.75,74.333,0.28307,143.9,185.67,72.249,0.28495,145.23,73.291,188.21,0.284,hexagonal,0,7.396872351,H4
mp-863708,KPuO3,KPuO3,147,193.61,75.6,0.28049,147,180.09,69.488,0.29582,147,72.544,186.89,0.28811,cubic,0,7.00235172,H1a
mp-971739,ZnCuPt2,ZnCuPt2,211.67,180.34,66.4,0.358,211.67,104.35,36.798,0.41784,211.67,51.599,143.16,0.38727,cubic,0,15.22557078,H1a
mp-10312,HfVGe,HfVGe,155.11,224.7,89.267,0.25856,154.37,135.93,50.222,0.35325,154.74,69.744,181.9,0.30408,tetragonal,0,10.01669195,H4
mp-1718,ZrFe2,ZrFe2,147.33,188.84,73.4,0.28638,147.33,184.38,71.385,0.29143,147.33,72.392,186.61,0.2889,cubic,0,7.692951349,H1a
mp-535,Fe4N,Fe4N,193.33,166.57,61.4,0.35641,193.33,144.88,52.682,0.3751,193.33,57.041,155.8,0.36569,cubic,0,7.950674823,H1a
mp-1523,ZrP2,ZrP2,127.11,204.22,82.867,0.23223,126.12,193.99,77.992,0.24364,126.61,80.429,199.12,0.23789,orthorhombic,0,5.019215607,H4
mp-7575,LiZnN,LiZnN,115.67,210.59,88,0.19655,115.67,199.85,82.446,0.21203,115.67,85.223,205.26,0.20424,cubic,0.5187,4.770473662,H5
mp-6624,Tb2Fe2Si2C,Tb2Fe2Si2C,127.56,208.92,85.133,0.22702,124.71,189.75,76.117,0.24642,126.13,80.625,199.39,0.23653,monoclinic,0,7.583527438,H4
mp-554278,TiO2,TiO2,181.44,169.07,62.867,0.3447,180.61,159.36,58.893,0.35295,181.03,60.88,164.23,0.3488,monoclinic,2.6944,3.615940061,H2
mp-1017447,HgGeO3,HgGeO3,172,188.16,71.4,0.31767,172,151.65,56.041,0.35305,172,63.72,170.15,0.33513,cubic,0,9.566805528,H1a
mp-768342,SrNb2O4,SrNb2O4,148.78,212.65,84.267,0.26178,146.59,158.29,59.958,0.32003,147.69,72.113,186.06,0.29003,orthorhombic,1.1539,5.791988026,H2
mp-4789,PrRhO3,PrRhO3,178.56,178.97,67.133,0.33295,176.01,154.01,56.867,0.35416,177.28,62,166.58,0.34339,orthorhombic,0.6044,7.6232968,H2
mp-961711,ZrSiPt,ZrSiPt,165,178.9,67.8,0.3193,165,170.44,64.182,0.32783,165,65.991,174.68,0.32355,cubic,1.368,9.010956816,H5
mp-3388,U(SiRu)2,U(SiRu)2,138.56,208.67,83.533,0.249,138.21,174.1,67.479,0.29005,138.38,75.506,191.66,0.26916,tetragonal,0,9.956832497,H4
mp-4613,Zr2SnC,Zr2SnC,127.89,199.28,80.333,0.2403,127.18,196.89,79.263,0.24199,127.54,79.798,198.08,0.24114,hexagonal,0,7.123122096,H4
mp-631354,ReOsRu,ReOsRu,255,111.32,39,0.42724,255,111.32,39,0.42724,255,39,111.32,0.42724,cubic,0,15.27885768,H1a
mp-20281,DySiIr,DySiIr,146.11,195.76,76.667,0.2767,145.87,177.36,68.355,0.29735,145.99,72.511,186.63,0.28693,orthorhombic,0,11.71403201,H4
mp-542915,TiAl3,TiAl3,107.56,215.01,92.133,0.16683,107.45,202.44,85.345,0.186,107.5,88.739,208.77,0.17633,tetragonal,0,3.3657055,H4
mp-7251,Ba2YNbO6,Ba2YNbO6,134,197.24,78.6,0.25468,134,190.37,75.351,0.26322,134,76.976,193.81,0.25894,cubic,2.8555,5.840609729,H2
mp-6957,Ce(FeP)2,Ce(FeP)2,132.33,236.95,98.6,0.20157,92.859,174.72,73.633,0.18641,112.6,86.117,205.87,0.19527,tetragonal,0,7.040081895,H4
mp-9756,ThGeO4,ThGeO4,167.22,177.63,67.133,0.32296,165.72,168.16,63.174,0.33088,166.47,65.154,172.9,0.32689,tetragonal,3.9626,7.825233589,H4
mp-866288,BeVCo2,BeVCo2,193,203.42,76.8,0.32434,193,103.02,36.503,0.41104,193,56.652,154.81,0.36631,cubic,0,7.088484016,H1a
mp-22565,MnSiRh,MnSiRh,158.56,187.9,72.133,0.30248,148.01,174.79,67.061,0.30318,153.28,69.597,181.35,0.30282,orthorhombic,0,7.415983669,H4
mp-1025205,Y2Re2Si2C,Y2Re2Si2C,149.56,189.54,73.533,0.28878,148.67,178.36,68.599,0.30004,149.11,71.066,183.97,0.29437,monoclinic,0,8.490938524,H4
mp-998973,TiFeCoSb,TiFeCoSb,155.33,183.48,70.4,0.30313,155.33,176.37,67.276,0.31077,155.33,68.838,179.93,0.30694,cubic,0,8.408648133,H1a
mp-971744,ZnCo3,ZnCo3,178.33,208.78,80,0.30488,178.33,117.57,42.289,0.39012,178.33,61.145,164.62,0.34615,cubic,0,8.7363844,H1a
mp-1017549,Ca(BH)2,Ca(BH)2,116.78,217.21,91.267,0.18999,110.74,192.13,79.336,0.21084,113.76,85.302,204.73,0.20005,trigonal,0.0542,2.539924539,H2
mp-6927,NpO,NpO,193,186.39,69.6,0.33904,193,120.83,43.289,0.39565,193,56.444,154.29,0.36676,cubic,0,14.65617519,H1a
mp-977384,ZnSiRh2,ZnSiRh2,183.33,161.32,59.6,0.35335,183.33,160.55,59.283,0.35405,183.33,59.442,160.93,0.3537,cubic,0,9.304990897,H1a
mp-1025220,SiAgPt5,SiAgPt5,198.56,161.38,59.133,0.36454,198.11,139.53,50.459,0.38262,198.33,54.796,150.53,0.37351,tetragonal,0,16.45209108,H4
mp-757031,Mg2TiO4,Mg2TiO4,146.56,196.43,76.933,0.27662,146.54,173.81,66.73,0.30232,146.55,71.832,185.23,0.28934,tetragonal,3.3894,3.429076235,H4