Material_ID,Formula,pretty_formula,KV ,EV ,GV ,PV ,KR ,ER ,GR ,PR ,bulk,shear,young,poisson,csyst,gap,density,y_cla
mp-30566,Ti2Co,Ti2Co,131,49.987,17.4,0.4364,124.65,45.813,15.921,0.43874,127.83,16.661,47.901,0.43754,cubic,0,5.785632504,H1a
mp-13536,TbZnNi,TbZnNi,74.222,87.433,33.533,0.30367,74.015,83.609,31.87,0.31173,74.119,32.702,85.526,0.30768,hexagonal,0,8.695884059,H4
mp-1541,BeSe,BeSe,49.333,103.88,45.2,0.14907,49.333,95.957,40.804,0.17582,49.333,43.002,99.962,0.16229,cubic,2.8976,4.194882439,H2
mp-998418,MgAgF3,MgAgF3,75.778,87.06,33.267,0.30852,71.728,84.383,32.357,0.30393,73.753,32.812,85.723,0.30628,trigonal,2.1901,5.00237842,H2
mp-8085,Mg3P2,Mg3P2,57.333,95.773,39.2,0.22159,57.333,95.723,39.175,0.22173,57.333,39.188,95.748,0.22166,cubic,1.5588,2.048438461,H5
mp-16828,Li3B7O12,Li3B7O12,68.556,108.19,43.733,0.23697,57.075,76.681,30.045,0.27608,62.815,36.889,92.551,0.25444,triclinic,5.6046,2.222017405,H5
mp-1025182,V2FeSe4,V2FeSe4,66.222,109.14,44.533,0.22533,52.983,79.65,31.874,0.24945,59.603,38.204,94.434,0.23593,monoclinic,0,6.400620979,H4
mp-867348,DyMgSn,DyMgSn,58.778,100.72,41.467,0.21442,58.579,89.05,35.716,0.24664,58.678,38.591,94.957,0.23029,tetragonal,0,6.582847906,H4
mp-20257,AsPd3Pb2,AsPd3Pb2,88.111,78.561,29.067,0.3514,88.051,73.478,26.996,0.36092,88.081,28.031,76.028,0.35614,orthorhombic,0,10.78614771,H4
mp-863671,Pm2CuRu,Pm2CuRu,81.333,80.621,30.2,0.33479,81.333,80.545,30.168,0.33495,81.333,30.184,80.583,0.33487,cubic,0,8.863995909,H1a
mp-783905,NaV2O4,NaV2O4,82.667,119.81,47.6,0.25846,67.456,46.893,16.939,0.38414,75.061,32.27,84.675,0.31199,orthorhombic,0.9597,3.534005538,H2
mp-568066,Pr2CBr,Pr2CBr,62,93,37.2,0.25,61.85,92.766,37.106,0.25002,61.925,37.153,92.883,0.25001,hexagonal,0,6.423642746,H4
mp-3862,Ca(AlGe)2,Ca(AlGe)2,58.333,97.277,39.8,0.22207,56.759,93.523,38.161,0.22538,57.546,38.98,95.401,0.2237,trigonal,0,3.617436715,H2
mp-20979,TmMgIn,TmMgIn,54.222,98.876,41.333,0.19608,54.099,95.577,39.64,0.20555,54.161,40.487,97.233,0.20079,hexagonal,0,6.833071723,H4
mp-2726,SrCu5,SrCu5,83.667,80.87,30.2,0.3389,82.19,77.645,28.917,0.34255,82.928,29.558,79.259,0.34071,hexagonal,0,6.972726344,H4
mp-10314,Yb(ZnAs)2,Yb(ZnAs)2,60.111,96.736,39.267,0.23179,59.226,91.37,36.757,0.24288,59.668,38.012,94.062,0.23727,trigonal,0.4282,7.136176292,H2
mp-11755,Lu6Sb2Mo,Lu6Sb2Mo,62.889,95.165,38.133,0.2478,62.54,89.325,35.392,0.26195,62.714,36.763,92.26,0.25481,hexagonal,0,9.701992866,H4
mp-864805,Nd2CuIr,Nd2CuIr,85.333,78.147,29,0.34737,85.333,77.074,28.557,0.34946,85.333,28.779,77.611,0.34842,cubic,0,10.04995144,H1a
mp-22712,YPd2Pb,YPd2Pb,95.667,73.533,26.8,0.37189,95.667,67.38,24.367,0.38261,95.667,25.584,70.469,0.37723,cubic,0,10.24002589,H1a
mp-863669,Pm2CuPt,Pm2CuPt,93,72.354,26.4,0.37033,93,72.302,26.379,0.37043,93,26.39,72.328,0.37038,cubic,0,9.970521945,H1a
mp-556235,CaCO3,CaCO3,78.444,93.37,35.867,0.30162,71.826,75.327,28.421,0.32521,75.135,32.144,84.396,0.31279,monoclinic,5.0086,2.62695605,H2
mp-2510,ZrHg,ZrHg,102.33,100.49,37.6,0.33633,101.23,28.708,9.8805,0.45274,101.78,23.74,66.083,0.39179,tetragonal,0,11.18802735,H4
mp-542854,Mg9Si5,Mg9Si5,58.667,98.573,40.4,0.21996,58.614,90.44,36.385,0.24283,58.64,38.392,94.544,0.23129,hexagonal,0,2.174173631,H4
mp-32686,CoO2,CoO2,88.333,127.46,50.6,0.25951,43.047,53.002,20.468,0.29479,65.69,35.534,90.316,0.27085,trigonal,0,4.490466613,H2
mp-570707,NdSe2,NdSe2,63.333,94.583,37.8,0.2511,63.304,88.833,35.081,0.26612,63.319,36.44,91.725,0.25856,monoclinic,0,6.616722396,H4
mp-977182,NaNb3,NaNb3,112.44,58.421,20.667,0.41341,112.44,58.335,20.634,0.41353,112.44,20.651,58.378,0.41347,cubic,0,6.607181932,H1a
mp-4083,MgCuAs,MgCuAs,75.222,93.439,36.133,0.29297,74.392,75.134,28.21,0.33167,74.807,32.172,84.414,0.31193,tetragonal,0,5.3556364,H4
mp-1926,HoFe2,HoFe2,86.333,82.58,30.8,0.34058,86.258,70.758,25.951,0.36328,86.296,28.376,76.718,0.35183,cubic,0,9.691970192,H1a
mp-9124,LiZnAs,LiZnAs,55,96.974,40.2,0.20614,55,95.874,39.634,0.20947,55,39.917,96.424,0.2078,cubic,0.5518,4.577797983,H5
mp-11248,LiAu3,LiAu3,99,72.735,26.4,0.37755,99,62.919,22.566,0.39408,99,24.483,67.856,0.38576,cubic,0,14.68638086,H1a
mp-6931,Sr(AlSi)2,Sr(AlSi)2,59.444,96.945,39.467,0.22819,58.569,91.349,36.833,0.24005,59.007,38.15,94.157,0.23405,trigonal,0,2.877424853,H2
mp-570150,CaAlSi,CaAlSi,61.444,99.143,40.267,0.23108,50.531,92.332,38.618,0.19546,55.988,39.442,95.825,0.21474,hexagonal,0,2.354365379,H4
mp-862993,ErMgSn,ErMgSn,60.556,99.017,40.333,0.22748,60.379,87.362,34.699,0.25885,60.467,37.516,93.261,0.24294,tetragonal,0,6.793351542,H4
mp-552857,TbBi2IO4,TbBi2IO4,71.111,101.19,40.067,0.26283,57.909,80.334,31.658,0.26879,64.51,35.862,90.767,0.2655,tetragonal,1.3501,8.372897999,H1a
mp-30600,TmCu5,TmCu5,104.33,64.277,23,0.39732,104.33,63.566,22.727,0.39846,104.33,22.864,63.922,0.39789,cubic,0,9.522537689,H1a
mp-1029799,Sr4TiN4,Sr4TiN4,73.556,92.704,35.933,0.28995,72.589,77.831,29.453,0.3213,73.072,32.693,85.35,0.30533,triclinic,1.1978,4.468440003,H5
mp-557403,LiFe2F6,LiFe2F6,71.889,91.521,35.533,0.28782,71.699,80.692,30.741,0.31243,71.794,33.137,86.157,0.29999,tetragonal,1.8873,3.626600248,H1a
mp-862,CaSi2,CaSi2,62.333,96.399,38.8,0.24225,57.449,90.563,36.598,0.23726,59.891,37.699,93.483,0.23985,tetragonal,0,2.594697869,H4
mp-252,BeTe,BeTe,54.667,98.784,41.2,0.19883,54.667,94.039,38.753,0.2133,54.667,39.977,96.425,0.20602,cubic,2.2113,4.985107254,H2
mp-571203,Sr(CoAs)2,Sr(CoAs)2,72.889,95.229,37.133,0.28225,69.432,77.686,29.572,0.31352,71.16,33.352,86.537,0.29732,tetragonal,0,6.365747273,H4
mp-9978,ErSe2,ErSe2,80.111,89.512,34.067,0.31378,80.028,71.566,26.487,0.35096,80.069,30.277,80.664,0.3321,tetragonal,0,7.954758721,H4
mp-11547,YTlPd,YTlPd,83.778,80.083,29.867,0.34068,82.351,77.134,28.698,0.34389,83.064,29.282,78.61,0.34227,hexagonal,0,9.730172605,H4
mp-864878,ZrAlAu2,ZrAlAu2,134.67,65.82,23.2,0.41854,134.67,16.789,5.6748,0.47922,134.67,14.437,41.818,0.44825,cubic,0,11.49569156,H1a
mp-2085,PrCo2,PrCo2,118.67,55.732,19.6,0.42173,114.79,54.01,18.996,0.42158,116.73,19.298,54.871,0.42165,cubic,0,8.720561397,H1a
mp-634381,V2Zn2O7,V2Zn2O7,117,79.848,28.8,0.38626,104.96,37.484,13.011,0.44048,110.98,20.905,59.011,0.41138,monoclinic,2.0493,4.112566019,H2
mp-568587,CrCuSe2,CrCuSe2,78,84.915,32.2,0.31856,75.065,80.941,30.653,0.32029,76.533,31.426,82.928,0.3194,trigonal,0,5.859432635,H2
mp-561258,ZnS,ZnS,69.556,88.447,34.333,0.28807,69.555,86.381,33.403,0.29301,69.555,33.868,87.416,0.29054,hexagonal,1.9964,3.996072795,H1a
mp-866223,CaYHg2,CaYHg2,72.333,87.734,33.8,0.29785,72.333,83.484,31.922,0.30764,72.333,32.861,85.617,0.30272,cubic,0,8.334801161,H1a
mp-19246,Sr2Mn3(SbO)2,Sr2Mn3(SbO)2,72.667,90.028,34.8,0.29351,70.461,82.155,31.461,0.30567,71.564,33.13,86.104,0.29947,tetragonal,0,5.265284558,H4
mp-2826,Lu2S3,Lu2S3,77.333,83.436,31.6,0.32018,77.051,81.408,30.746,0.32391,77.192,31.173,82.423,0.32204,trigonal,2.6637,6.198990183,H2
mp-1672,CaS,CaS,57,96.462,39.6,0.21795,57,93.427,38.077,0.22682,57,38.838,94.95,0.22237,cubic,2.5596,2.565499433,H2
mp-1009813,SiSn,SiSn,59,95.875,39,0.22917,59,91.664,36.93,0.24106,59,37.965,93.78,0.23509,cubic,0.4114,4.361247561,H5
mp-15252,Cu2GeS3,Cu2GeS3,71.667,91.628,35.6,0.28691,71.594,80.295,30.575,0.31308,71.63,33.088,86.018,0.29986,monoclinic,0.3743,4.364836905,H4
mp-10597,Ag,Ag,87.444,77.04,28.467,0.35316,87.402,73.907,27.19,0.35907,87.423,27.828,75.477,0.35611,hexagonal,0,9.888473947,H4
mp-16035,Gd2TeO2,Gd2TeO2,65.444,100.65,40.467,0.24367,63.509,80.028,31.019,0.28998,64.477,35.743,90.504,0.26605,tetragonal,1.1192,7.825607218,H1a
mp-1573,Sn2Pd,Sn2Pd,80.333,83.811,31.6,0.32612,80.211,76.768,28.634,0.34049,80.272,30.117,80.308,0.33326,tetragonal,0,8.450320988,H4
mp-2065,MnS,MnS,55.667,95.637,39.4,0.21366,55.667,95.625,39.394,0.2137,55.667,39.397,95.631,0.21368,cubic,0,4.296223098,H1a
mp-9306,Sr2ZnN2,Sr2ZnN2,67.111,95.616,37.867,0.26254,64.899,83.382,32.422,0.28587,66.005,35.144,89.541,0.2739,tetragonal,0.8524,4.587367301,H1a
mp-18807,V2Zn2O7,V2Zn2O7,116.89,79.672,28.733,0.3864,104.71,37.608,13.057,0.44014,110.8,20.895,58.978,0.41128,monoclinic,2.3404,3.96496566,H2
mp-20708,In2Ni3S2,In2Ni3S2,72.333,89.079,34.4,0.29475,72.325,81.911,31.234,0.31124,72.329,32.817,85.518,0.30294,trigonal,0,6.731044014,H2
mp-8401,CsMgF3,CsMgF3,63.667,95.5,38.2,0.25,63.667,86.314,33.874,0.27405,63.667,36.037,90.951,0.26191,cubic,7.0949,4.626006179,H2
mp-641365,PbWO4,PbWO4,84.111,95.128,36.267,0.3115,76.972,64.637,23.763,0.36004,80.542,30.015,80.095,0.33426,monoclinic,2.9031,8.436680852,H2
mp-15669,Ti3Te4,Ti3Te4,59.778,99.448,40.667,0.22273,58.96,87.412,34.884,0.25291,59.369,37.775,93.496,0.23753,monoclinic,0,6.386267658,H4
mp-4008,ZnGeAs2,ZnGeAs2,60.556,96.186,38.933,0.23527,60.55,89.316,35.608,0.25415,60.553,37.271,92.777,0.24464,tetragonal,0.5679,5.070436673,H1a
mp-996992,LiAgO2,LiAgO2,79.667,101.47,39.4,0.28772,68.284,66.933,25.038,0.33663,73.975,32.219,84.404,0.30984,monoclinic,0.4904,5.306694525,H4
mp-2071,Zn3P2,Zn3P2,65.444,91.836,36.267,0.26612,65.41,87.793,34.393,0.2763,65.427,35.33,89.822,0.27119,tetragonal,0.6051,4.535573554,H1a
mp-865996,YbSbPd2,YbSbPd2,90.667,74.677,27.4,0.36273,90.667,71.533,26.135,0.36851,90.667,26.768,73.109,0.36561,cubic,0,10.97424008,H1a
mp-31169,ScAlAg2,ScAlAg2,96.667,94.17,35.2,0.33764,96.667,41.84,14.651,0.42786,96.667,24.926,68.858,0.38128,cubic,0,6.595296752,H1a
mp-21503,YMgIn,YMgIn,53.889,98.371,41.133,0.19576,53.809,94.489,39.131,0.20733,53.849,40.132,96.439,0.20151,hexagonal,0,4.907289899,H4
mp-17862,Ag3Ge5P6,Ag3Ge5P6,65,93.721,37.2,0.25969,65,86.112,33.659,0.2792,65,35.429,89.946,0.26937,cubic,0.5766,5.088886742,H5
mp-18895,KCoO2,KCoO2,74.667,109.07,43.4,0.25654,61.884,65.922,24.924,0.32246,68.275,34.162,87.836,0.28558,tetragonal,0,3.453999686,H4
mp-437,MgAu,MgAu,79.667,92.044,35.2,0.30744,79.667,68.158,25.106,0.35741,79.667,30.153,80.325,0.33196,cubic,0,10.17576094,H1a
mp-11496,LuZn,LuZn,67.667,96.45,38.2,0.26244,67.667,79.484,30.472,0.30423,67.667,34.336,88.105,0.28299,cubic,0,9.334024847,H1a
mp-13095,YAlNi,YAlNi,93.111,98.64,37.267,0.32344,90.923,43.164,15.189,0.42088,92.017,26.228,71.857,0.36985,hexagonal,0,5.292877383,H4
mp-19086,BaCoO2,BaCoO2,78.778,81.433,30.667,0.32772,78.773,80.323,30.195,0.33005,78.775,30.431,80.879,0.32888,trigonal,0.5262,5.444941561,H2
mp-10652,SmTe,SmTe,59.667,95.664,38.8,0.23278,59.667,90.147,36.111,0.24819,59.667,37.456,92.923,0.24044,cubic,0,8.118617002,H1a
mp-1105,BaO2,BaO2,67.556,91.132,35.733,0.27517,66.244,85.926,33.465,0.28381,66.9,34.599,88.535,0.27943,tetragonal,2.2907,5.391926599,H4
mp-21875,Y4GaCo4,Y4GaCo4,85,81.486,30.4,0.34022,84.458,72.039,26.527,0.35784,84.729,28.463,76.791,0.34895,monoclinic,0,6.336075252,H4
mp-30341,TiAgHg2,TiAgHg2,77.667,85.334,32.4,0.31688,77.647,77.702,29.141,0.33321,77.657,30.77,81.542,0.325,tetragonal,0,11.51057958,H4
mp-5878,KZnF3,KZnF3,68.667,87.55,34,0.2875,68.667,87.171,33.829,0.28842,68.667,33.914,87.36,0.28796,cubic,3.7864,3.802593254,H2
mp-10039,Pr3AlC,Pr3AlC,61.333,92,36.8,0.25,61.333,91.576,36.597,0.25115,61.333,36.698,91.788,0.25058,cubic,0,5.654872106,H1a
mp-547125,TbBi2ClO4,TbBi2ClO4,84.778,100.24,38.467,0.30294,70.543,62.176,22.976,0.3531,77.66,30.721,81.426,0.32525,tetragonal,1.4425,8.095594974,H1a
mp-21609,SrCuN,SrCuN,68.333,88.811,34.6,0.28339,68.073,86.224,33.449,0.28889,68.203,34.024,87.52,0.28613,orthorhombic,0.2621,5.064433467,H2
mp-2050,HoSb,HoSb,63.333,98.721,39.8,0.24021,63.333,82.052,31.95,0.28407,63.333,35.875,90.531,0.26176,cubic,0,8.062841689,H1a
mp-786,MnSb,MnSb,53.778,100.85,42.467,0.18744,53.53,91.047,37.421,0.21653,53.654,39.944,96.007,0.20177,hexagonal,0,7.180776111,H4
mp-16220,Si,Si,62,91.747,36.6,0.25337,62,90.704,36.103,0.25617,62,36.352,91.226,0.25477,cubic,0.7021,1.980888808,H5
mp-19080,Na2Mn3O7,Na2Mn3O7,83.111,119.2,47.267,0.26096,70.942,40.631,14.464,0.40454,77.026,30.865,81.685,0.32325,triclinic,1.5444,3.687311491,H5
mp-21508,Y2Pd2Pb,Y2Pd2Pb,82.556,79.16,29.533,0.34019,82.26,76.955,28.627,0.34408,82.408,29.08,78.059,0.34213,tetragonal,0,8.625367695,H4
mp-567454,NdGa3,NdGa3,65,89.883,35.4,0.26953,65,88.876,34.933,0.27211,65,35.166,89.38,0.27082,cubic,0,6.971996219,H1a
mp-553243,YBi2BrO4,YBi2BrO4,73.444,102.13,40.267,0.26823,58.601,75.279,29.271,0.2859,66.023,34.769,88.731,0.27601,tetragonal,1.4036,7.529211582,H1a
mp-3668,CdGeP2,CdGeP2,65.444,93.54,37.067,0.26178,65.4,84.503,32.89,0.28465,65.422,34.978,89.062,0.27311,tetragonal,0.6477,4.428162639,H1a
mp-684969,Sc2S3,Sc2S3,56.667,95.167,39,0.2201,56.364,93.497,38.208,0.22353,56.515,38.604,94.333,0.22181,monoclinic,1.2967,2.890724083,H4
mp-556487,K2NaMoF6,K2NaMoF6,80.667,79.598,29.8,0.33554,80.667,78.701,29.423,0.3374,80.667,29.612,79.15,0.33647,cubic,3.9184,3.134531155,H2
mp-408,Mg2Ge,Mg2Ge,49.667,97.928,41.8,0.17138,49.667,97.886,41.777,0.17152,49.667,41.789,97.907,0.17145,cubic,0.2505,3.035880353,H5
mp-814,DySe,DySe,82,106.31,41.4,0.28392,82,47.462,16.908,0.40353,82,29.154,78.195,0.34107,cubic,0,8.371501489,H1a
mp-862885,CaPmRh2,CaPmRh2,85.667,75.747,28,0.35263,85.667,75.614,27.945,0.35289,85.667,27.973,75.681,0.35276,cubic,0,7.746576393,H1a
mp-556424,RbVF3,RbVF3,64.667,93.221,37,0.25974,64.667,85.545,33.429,0.27952,64.667,35.214,89.413,0.26955,cubic,2.8467,4.111199921,H2
mp-568931,YbNiSb,YbNiSb,69.333,95.1,37.4,0.27139,69.333,77.535,29.512,0.31362,69.333,33.456,86.461,0.29216,cubic,0,9.053954071,H1a
mp-4574,YbTaO4,YbTaO4,73.333,102.82,40.6,0.26631,45.739,81.313,33.776,0.20371,59.536,37.188,92.338,0.24151,monoclinic,0,8.933639311,H4
mp-30395,ScInAu2,ScInAu2,99.667,88.673,32.8,0.35172,99.667,41.387,14.463,0.43079,99.667,23.631,65.702,0.39013,cubic,0,11.65337324,H1a
mp-9946,ZnS,ZnS,69.444,87.393,33.867,0.29026,69.444,84.981,32.785,0.29604,69.444,33.326,86.19,0.29314,hexagonal,2.0349,3.995919404,H1b
mp-865524,YCdPt2,YCdPt2,114.67,82.273,29.8,0.38042,114.67,25.935,8.8679,0.4623,114.67,19.334,54.915,0.42018,cubic,0,12.4568117,H1a
mp-34081,NaYF4,NaYF4,64.889,93.977,37.333,0.25862,62.848,85.269,33.468,0.27387,63.868,35.401,89.64,0.26608,tetragonal,6.9274,3.814662483,H4
mp-865752,YbGa2Ir,YbGa2Ir,93.333,104.54,39.8,0.31332,93.333,32.225,11.17,0.44246,93.333,25.485,70.077,0.37486,cubic,0,12.66690225,H1a
mp-568419,Mg3Ir,Mg3Ir,75.667,83.216,31.6,0.31671,75.635,80.959,30.629,0.3216,75.651,31.115,82.09,0.31915,hexagonal,0,5.881688096,H4
mp-997086,SrAgO2,SrAgO2,81.111,85.934,32.467,0.32342,73.425,76.082,28.66,0.3273,77.268,30.563,81.009,0.32526,monoclinic,0.7428,5.885536132,H4
mp-10651,YbSi,YbSi,56.889,95.898,39.333,0.21905,56.353,91.803,37.364,0.22849,56.621,38.349,93.857,0.22373,orthorhombic,0,7.137531395,H4
mp-25317,Li3(CuO2)2,Li3(CuO2)2,80.111,102.58,39.867,0.28658,59.424,69.138,26.467,0.30609,69.768,33.167,85.891,0.29482,monoclinic,0,3.517247899,H4
mp-3988,BaCu3O4,BaCu3O4,95,98.245,37,0.32764,55.594,66.2,25.431,0.30154,75.297,31.216,82.277,0.31788,orthorhombic,0,5.230248685,H4
mp-753506,LiBiS2,LiBiS2,62.778,96.653,38.867,0.2434,61.467,84.429,33.212,0.27107,62.122,36.039,90.598,0.25694,tetragonal,0.209,5.324329091,H1a
mp-549475,TbBi2BrO4,TbBi2BrO4,72.889,102.16,40.333,0.26641,57.717,75.109,29.269,0.28311,65.303,34.801,88.654,0.27374,tetragonal,1.3573,8.361980309,H1a
mp-973572,La2TlHg,La2TlHg,73.333,85.178,32.6,0.30641,73.333,81.83,31.137,0.31402,73.333,31.869,83.509,0.31021,cubic,0,9.096842127,H1a
mp-976968,NaPdO3,NaPdO3,63,99.448,40.2,0.23691,63,80.131,31.107,0.28801,63,35.653,89.985,0.26194,cubic,0,4.633705176,H1a
mp-1356,Sb2Pd,Sb2Pd,84.667,82.884,31,0.33684,84.667,68.683,25.162,0.3648,84.667,28.081,75.857,0.35068,cubic,0,8.215815555,H1a
mp-862703,Sc2AgAu,Sc2AgAu,92.667,86.573,32.2,0.34429,92.667,53.226,18.952,0.40427,92.667,25.576,70.263,0.37363,cubic,0,8.16616287,H1a
mp-961698,LiZnP,LiZnP,66.333,101.99,41,0.24375,66.333,72.857,27.662,0.31694,66.333,34.331,87.839,0.2793,cubic,0.0002,3.644679973,H5
mp-5127,LiCuO,LiCuO,73.556,90.477,34.933,0.29499,69.87,78.236,29.784,0.31338,71.713,32.359,84.384,0.30388,tetragonal,1.5632,4.04653802,H1a
mp-13456,ZnS,ZnS,69.556,87.117,33.733,0.29125,69.552,84.377,32.507,0.29781,69.554,33.12,85.75,0.29452,trigonal,2.0983,3.995935892,H2
mp-20761,LaCoGe,LaCoGe,64.444,94.154,37.467,0.2565,61.07,85.801,33.891,0.26584,62.757,35.679,89.984,0.26103,tetragonal,0,7.250485991,H4
mp-20900,Cu3Sb,Cu3Sb,101.56,75.249,27.333,0.37651,88.321,61.953,22.397,0.38309,94.938,24.865,68.605,0.37956,orthorhombic,0,8.716778127,H4
mp-549709,ErBi2ClO4,ErBi2ClO4,76.778,104.13,40.867,0.27397,59.432,69.026,26.418,0.30643,68.105,33.642,86.658,0.28793,tetragonal,1.4576,8.391655972,H1a
mp-20296,In2Co,In2Co,89,80.424,29.8,0.34939,88.376,65.322,23.722,0.37681,88.688,26.761,72.946,0.36292,orthorhombic,0,8.578049598,H4
mp-865151,YbNdRh2,YbNdRh2,88,73.485,27,0.36082,88,73.345,26.943,0.36109,88,26.972,73.415,0.36096,cubic,0,10.62653877,H1a
mp-17702,Yb2SiO5,Yb2SiO5,81.111,84.53,31.867,0.32631,80.222,72.18,26.733,0.35004,80.667,29.3,78.406,0.338,monoclinic,0.1181,6.799874945,H4
mp-321,RhPb2,RhPb2,81.444,82.687,31.067,0.33079,78.248,75.092,28.018,0.34005,79.846,29.543,78.897,0.33531,tetragonal,0,12.44565599,H4
mp-23560,Ge3(BiO3)4,Ge3(BiO3)4,51,96.632,40.8,0.18421,51,96.414,40.683,0.18492,51,40.742,96.523,0.18457,cubic,3.5617,6.825363779,H2
mvc-13442,Cu2S,Cu2S,102.22,66.086,23.733,0.39225,99.876,62.293,22.31,0.39605,101.05,23.022,64.191,0.39413,tetragonal,0,6.235688438,H4
mp-10105,UTeAs,UTeAs,72.111,88.296,34.067,0.29593,70.486,80.664,30.805,0.30927,71.298,32.436,84.495,0.30249,tetragonal,0,9.645292994,H4
mp-540771,BaZrS3,BaZrS3,70.111,87.51,33.867,0.29197,69.908,83.047,31.892,0.30201,70.009,32.879,85.286,0.29696,orthorhombic,1.5003,4.220670619,H2
mp-8789,Ca4As2O,Ca4As2O,53.111,96.047,40.067,0.1986,52.942,94.6,39.345,0.20219,53.026,39.706,95.324,0.20039,tetragonal,1.2356,3.351707005,H1a
mp-20353,GdGa,GdGa,60.778,95.704,38.667,0.23756,60.454,86.204,34.145,0.26234,60.616,36.406,90.999,0.24979,orthorhombic,0,7.531847056,H4
mp-8175,KTlO2,KTlO2,88.556,76.318,28.133,0.35636,88.019,69.552,25.415,0.3683,88.287,26.774,72.949,0.36229,trigonal,0.8868,6.951055694,H2
mp-10281,ZnS,ZnS,69.556,86.672,33.533,0.29232,69.552,84.21,32.433,0.29821,69.554,32.983,85.444,0.29526,hexagonal,2.0471,3.995112497,H1b
mp-549,ScSb,ScSb,64.667,97,38.8,0.25,64.667,79.699,30.782,0.29459,64.667,34.791,88.501,0.2719,cubic,0,5.412533961,H1a
mp-865449,Tm2MgTc,Tm2MgTc,84.667,75.66,28,0.35106,84.667,75.118,27.778,0.35213,84.667,27.889,75.389,0.3516,cubic,0,8.782571102,H1a
mp-557686,ZrVF6,ZrVF6,72,110.49,44.4,0.24424,72,54.392,19.792,0.37409,72,32.096,83.831,0.30595,cubic,2.416,2.976044953,H2
mp-22891,Bi2O3,Bi2O3,109.67,72.802,26.2,0.38936,109.67,42.277,14.723,0.43575,109.67,20.462,57.79,0.41217,cubic,0,8.864215807,H1a
mp-20263,CaIn,CaIn,85,93.254,35.4,0.31715,85,56.017,20.148,0.39016,85,27.774,75.138,0.35267,cubic,0,4.457748569,H1a
mp-21019,Cr2FeS4,Cr2FeS4,99,77.264,28.2,0.36993,99,53.133,18.834,0.41055,99,23.517,65.375,0.38994,cubic,0,3.815453927,H1a
mp-759541,Ba(PdO2)2,Ba(PdO2)2,93.333,90,33.6,0.33929,82.127,56.035,20.21,0.38628,87.73,26.905,73.23,0.36088,tetragonal,0,6.468978008,H4
mp-1018683,DySe2,DySe2,78.222,88.022,33.533,0.31245,78.099,71.173,26.397,0.34811,78.16,29.965,79.71,0.33003,tetragonal,0,7.699010317,H4
mp-10695,ZnS,ZnS,68.667,91.499,35.8,0.27792,68.667,80.192,30.717,0.30536,68.667,33.258,85.906,0.29149,cubic,2.3504,3.998930216,H2
mp-1018031,KInO2,KInO2,53.556,98.247,41.133,0.19425,49.2,93.75,39.643,0.18242,51.378,40.388,96.008,0.18856,trigonal,2.0802,5.098025304,H2
mp-11754,Sc6Te2Os,Sc6Te2Os,72.333,90.417,35,0.29167,71.86,76.727,29.018,0.32205,72.097,32.009,83.648,0.30663,hexagonal,0,5.887647354,H4
mp-11984,YMgTl,YMgTl,54,96.238,40,0.20297,53.955,92.846,38.265,0.2132,53.977,39.133,94.549,0.20806,hexagonal,0,6.803617152,H4
mp-30175,Ca(AlZn)2,Ca(AlZn)2,61.333,92.832,37.2,0.24774,61.091,87.944,34.896,0.26007,61.212,36.048,90.399,0.25386,tetragonal,0,3.82554789,H4
mp-16032,Pr2TeO2,Pr2TeO2,68,95.245,37.6,0.26656,66.016,78.154,29.997,0.30269,67.008,33.799,86.801,0.2841,tetragonal,1.693,6.637291253,H1a
mp-1727,SrSi2,SrSi2,54.667,96.471,40,0.20588,52.151,93.018,38.67,0.20273,53.409,39.335,94.745,0.20434,tetragonal,0,3.472602102,H4