Material_ID,Formula,pretty_formula,KV ,EV ,GV ,PV ,KR ,ER ,GR ,PR ,bulk,shear,young,poisson,csyst,gap,density,y_cla
mp-11455,HfPt,HfPt,184.67,99.291,35.2,0.41039,184.67,80.154,28.072,0.42766,184.67,31.636,89.781,0.41897,cubic,0,16.80273203,H1a
mp-3642,ScCuO2,ScCuO2,143.44,147.87,55.667,0.32819,130.6,98.202,35.718,0.37468,137.02,45.693,123.36,0.34995,hexagonal,2.3793,4.470861,H1b
mp-1018709,Hf2GaSb3,Hf2GaSb3,88.222,156.42,64.933,0.20449,87.826,151.98,62.717,0.2116,88.024,63.825,154.2,0.20802,tetragonal,0,9.767270078,H4
mp-3740,TiNi2Sn,TiNi2Sn,155.33,136.93,50.6,0.35308,155.33,83.194,29.486,0.41074,155.33,40.043,110.62,0.38131,cubic,0,8.252257109,H1a
mp-865487,VZnRh2,VZnRh2,201.67,142.13,51.4,0.38254,201.67,7.3401,2.4566,0.49393,201.67,26.928,77.342,0.43608,cubic,0,9.621992759,H1a
mp-931,ThP,ThP,113.67,160.38,63.4,0.26484,113.67,116.01,43.618,0.32989,113.67,53.509,138.75,0.29655,cubic,0,8.693864415,H1a
mp-8335,Ba2ZrO4,Ba2ZrO4,106,146.3,57.6,0.26997,105.87,140.79,55.068,0.27835,105.93,56.334,143.56,0.27414,tetragonal,3.028,5.804495271,H4
mp-11263,Zr3Au,Zr3Au,118.33,142.42,54.8,0.29941,118.33,128.77,48.828,0.31863,118.33,51.814,135.64,0.30895,cubic,0,9.202326489,H1a
mp-982040,KBiO3,KBiO3,85.333,163.42,69.2,0.18081,85.333,147.3,60.752,0.21231,85.333,64.976,155.47,0.19635,cubic,0,6.252348761,H1a
mp-37214,MnPbO3,MnPbO3,84,156.91,66,0.18868,84,155.29,65.143,0.19189,84,65.571,156.1,0.19028,cubic,0,8.584766028,H1a
mp-31453,NbSbRh,NbSbRh,152.33,112.87,41,0.37651,152.33,112.01,40.658,0.37745,152.33,40.829,112.44,0.37698,cubic,0,8.703861442,H1a
mp-16734,SmNiAs,SmNiAs,122.22,136.47,51.933,0.3139,115.57,133.78,51.176,0.30707,118.9,51.555,135.13,0.31057,hexagonal,0,8.143151492,H4
mp-590,NiAs,NiAs,133.89,127.99,47.733,0.34068,133.86,122.27,45.361,0.34776,133.87,46.547,125.14,0.34421,hexagonal,0,7.640999563,H4
mp-567653,Ti3Ni4,Ti3Ni4,163.44,115.21,41.667,0.38252,163.35,93.847,33.415,0.40425,163.4,37.541,104.61,0.39329,trigonal,0,6.846277969,H2
mp-984717,BeNi3,BeNi3,62.333,184.99,92,0.0053763,62.333,143.15,64.061,0.11726,62.333,78.031,165.17,0.058368,cubic,0,7.690679772,H1a
mp-18924,Sr3(FeO3)2,Sr3(FeO3)2,109.11,149.68,58.867,0.27136,108.37,133.32,51.477,0.29495,108.74,55.172,141.57,0.28301,tetragonal,0.3223,4.943361725,H1a
mp-30178,Mg2Al5Cu6,Mg2Al5Cu6,100.33,146.73,58.4,0.25626,100.33,146.72,58.396,0.25627,100.33,58.398,146.73,0.25627,cubic,0,4.985416018,H1a
mp-32548,BiO2,BiO2,138.33,129.55,48.2,0.34391,138.33,114.39,41.989,0.36218,138.33,45.095,122.02,0.35298,cubic,0,9.561020949,H1a
mp-1869,GaPd2,GaPd2,151.33,118.84,43.4,0.36912,147.49,109.85,39.921,0.37587,149.41,41.66,114.35,0.37244,orthorhombic,0,10.34733828,H4
mp-568337,ThRh2,ThRh2,171,109.25,39.2,0.39352,169.88,89.604,31.727,0.41209,170.44,35.464,99.491,0.40271,hexagonal,0,12.46673547,H4
mp-21309,MgTe(PbO3)2,MgTe(PbO3)2,78,168.32,73.8,0.14035,78,149.16,63.133,0.18129,78,68.466,158.91,0.16046,cubic,2.2799,8.35076891,H2
mp-19378,CrAgO2,CrAgO2,142.78,157.11,59.667,0.3166,136.84,82.644,29.53,0.39934,139.81,44.598,120.94,0.35583,trigonal,1.6956,6.280759154,H2
mp-4259,Ca(CoGe)2,Ca(CoGe)2,98.111,150.07,60.267,0.24506,96.58,146.79,58.871,0.24669,97.346,59.569,148.43,0.24587,tetragonal,0,6.135257258,H4
mp-9177,Y2Al3Si2,Y2Al3Si2,86,157.29,65.8,0.19518,85.558,152.59,63.432,0.20276,85.779,64.616,154.94,0.19895,monoclinic,0,3.887422402,H4
mp-1016849,CdRuO3,CdRuO3,132.67,142.18,53.8,0.32138,132.67,108.7,39.864,0.36344,132.67,46.832,125.7,0.34208,cubic,0,7.16304769,H1a
mp-505071,Si2Pd9,Si2Pd9,163.56,112.32,40.533,0.38554,163.39,96.201,34.312,0.40187,163.47,37.422,104.31,0.39366,orthorhombic,0,10.19248458,H4
mp-36329,SrUO4,SrUO4,132,144.42,54.8,0.31766,131.36,107.63,39.469,0.36345,131.68,47.135,126.33,0.34011,trigonal,1.9462,7.66988739,H2
mp-21873,NiAs2,NiAs2,112.67,148.52,58,0.2803,112.67,128.79,49.176,0.30948,112.67,53.588,138.76,0.29473,cubic,0,7.146180328,H1a
mp-19370,LaCoPO,LaCoPO,122.22,138.31,52.733,0.3114,121.59,127.15,47.956,0.32571,121.91,50.345,132.76,0.3185,tetragonal,0.0138,6.175232004,H1a
mp-974842,KPtO3,KPtO3,158.33,111.7,40.4,0.38242,158.33,103.82,37.327,0.39071,158.33,38.863,107.77,0.38656,cubic,0,7.072388646,H1a
mp-1007961,CrInCu2,CrInCu2,88.667,162.85,68.2,0.1939,88.667,143.08,58.113,0.23105,88.667,63.157,153.12,0.21219,cubic,0,8.134996984,H1a
mp-3507,Lu(SiPd)2,Lu(SiPd)2,131.11,130.87,49.067,0.33363,126.41,125.43,46.992,0.33462,128.76,48.029,128.15,0.33412,tetragonal,0,8.720292236,H4
mp-618309,Bi2AuO5,Bi2AuO5,124.67,138.34,52.6,0.31505,117.92,127.87,48.461,0.31927,121.29,50.53,133.11,0.3171,tetragonal,0,10.23806256,H4
mp-12005,Tm2Al3Si2,Tm2Al3Si2,85.222,157.63,66.133,0.19173,84.81,152.35,63.447,0.20061,85.016,64.79,155,0.19614,monoclinic,0,6.046197375,H4
mp-755018,RbTaO3,RbTaO3,106.33,169.78,68.8,0.23388,105.92,113.77,43.061,0.32099,106.13,55.93,142.72,0.27587,trigonal,2.5625,7.622331587,H2
mp-977583,LiNpIr2,LiNpIr2,184.67,104.05,37,0.40609,184.67,73.296,25.559,0.43385,184.67,31.28,88.824,0.41983,cubic,0,15.77859093,H1a
mp-282,TiF2,TiF2,109,143,55.8,0.28135,109,138.75,53.87,0.28784,109,54.835,140.88,0.28459,cubic,0.4422,4.0721815,H5
mp-754671,YScO2,YScO2,118.33,141.51,54.4,0.30068,111.2,132.81,51.045,0.30094,114.77,52.723,137.16,0.30081,trigonal,0,4.031989206,H2
mp-9517,SrTiN2,SrTiN2,123.44,159.47,62.067,0.28469,119.84,104.49,38.566,0.35468,121.64,50.317,132.66,0.31824,tetragonal,0.7925,4.596150182,H1a
mp-4817,CeAl5Ni2,CeAl5Ni2,94.667,153.88,62.6,0.22908,92.272,146.47,59.277,0.23544,93.469,60.938,150.18,0.23221,orthorhombic,0,4.901765438,H4
mp-1016831,HgIrO3,HgIrO3,176,121.33,43.8,0.3851,176,67.479,23.494,0.4361,176,33.647,94.894,0.41014,cubic,0,11.72554886,H1a
mp-1018032,SrCdO2,SrCdO2,115.44,138.05,53.067,0.3007,114.85,135.5,51.982,0.30336,115.15,52.524,136.78,0.30203,tetragonal,0.3887,6.147157205,H1a
mp-6174,Mg2Al4Si5O18,Mg2Al4Si5O18,122.67,132.99,50.4,0.31931,122.11,131.03,49.59,0.32115,122.39,49.995,132.01,0.32023,orthorhombic,4.8175,2.424741037,H2
mp-865230,TmMgRh2,TmMgRh2,116,136.17,52.2,0.30435,116,135.96,52.105,0.30466,116,52.153,136.07,0.3045,cubic,0,9.561030965,H1a
mp-3194,Tb2Al3Si2,Tb2Al3Si2,86.111,156.69,65.467,0.19673,85.614,151.61,62.918,0.20485,85.862,64.193,154.16,0.20076,monoclinic,0,5.569919215,H4
mp-866186,Ti3Zn,Ti3Zn,110.67,141.55,55,0.28682,110.67,137.37,53.118,0.29311,110.67,54.059,139.47,0.28996,cubic,0,5.349155214,H1a
mp-862336,Sc2IrPd,Sc2IrPd,135.67,128.33,47.8,0.34235,135.67,117.51,43.341,0.35564,135.67,45.571,122.95,0.34896,cubic,0,9.20180996,H1a
mp-865990,Y3Al7Cu2,Y3Al7Cu2,88,153.37,63.4,0.20953,87.86,152.64,63.049,0.21046,87.93,63.224,153,0.20999,trigonal,0,4.345998438,H2
mp-5292,Ca(SiNi)2,Ca(SiNi)2,104.67,146.02,57.6,0.26749,104.48,140.28,54.961,0.27621,104.57,56.281,143.16,0.27183,tetragonal,0,4.624874698,H4
mp-542435,Li3ScN2,Li3ScN2,92.667,157.26,64.6,0.21716,92.667,143.1,57.578,0.24263,92.667,61.089,150.25,0.22977,cubic,2.2441,2.445093005,H2
mp-10755,TiFeSb,TiFeSb,113.33,138.9,53.6,0.29573,113.33,136.32,52.452,0.29952,113.33,53.026,137.62,0.29762,cubic,0,7.055233464,H1a
mp-28797,YHSe,YHSe,85.889,154.44,64.333,0.20031,85.457,153.69,64.021,0.20027,85.673,64.177,154.06,0.20029,hexagonal,1.5589,5.5580947,H1a
mp-20674,Ba2YCu3O7,Ba2YCu3O7,115.22,145.76,56.533,0.28916,103.22,134.49,52.419,0.28283,109.22,54.476,140.13,0.28616,orthorhombic,0,6.198285186,H4
mp-999188,NbNi3,NbNi3,208.67,78.753,27.4,0.4371,208.67,62.388,21.511,0.45017,208.67,24.455,70.608,0.4436,cubic,0,8.850508014,H1a
mp-981539,Hf2IrPd,Hf2IrPd,178,109.04,39,0.39791,178,76.049,26.613,0.42879,178,32.806,92.723,0.41318,cubic,0,15.12329932,H1a
mp-4291,Ho(NiGe)2,Ho(NiGe)2,123,133.96,50.8,0.31848,122.36,128.37,48.437,0.32514,122.68,49.618,131.17,0.3218,tetragonal,0,8.825428437,H4
mp-753581,LaUO4,LaUO4,178.78,168.33,62.667,0.34307,178.78,7.3492,2.461,0.49315,178.78,32.564,92.1,0.41414,tetragonal,0,8.780931131,H4
mp-10930,TbSF,TbSF,106.78,142.71,55.867,0.27725,106.76,139.97,54.615,0.28148,106.77,55.241,141.35,0.27936,tetragonal,1.2582,6.997341545,H1a
mp-14753,Li7TaN4,Li7TaN4,82.667,161.58,68.8,0.17424,82.667,148.84,62.02,0.19992,82.667,65.41,155.28,0.18694,cubic,3.341,3.967542724,H2
mp-16326,DyPPt,DyPPt,135.44,131.82,49.267,0.3378,118.18,124.79,47.124,0.32402,126.81,48.195,128.33,0.33134,hexagonal,0,11.2233027,H4
mp-14549,CuO,CuO,177.67,103.79,37,0.40263,177.67,81.67,28.689,0.42339,177.67,32.844,92.813,0.41293,cubic,0,6.965341578,H1a
mp-570001,Al6Fe,Al6Fe,106.44,146.97,57.867,0.26988,105.98,136.32,53.015,0.28563,106.21,55.441,141.67,0.27769,orthorhombic,0,3.428138324,H4
mp-3731,LiNbO3,LiNbO3,102.89,147.18,58.333,0.26158,102.44,140.52,55.261,0.27138,102.66,56.797,143.86,0.26645,trigonal,3.3768,4.412866737,H2
mp-10931,HoSF,HoSF,103.22,145.13,57.333,0.26567,103.19,141.92,55.838,0.27078,103.2,56.586,143.53,0.26822,tetragonal,1.3005,7.393129192,H1a
mp-9961,Ti2CdC,Ti2CdC,112.89,159.64,63.133,0.26431,110.11,116.01,43.798,0.3244,111.5,53.466,138.29,0.29329,hexagonal,0,6.020726491,H4
mp-3513,Dy2Al3Si2,Dy2Al3Si2,84.556,156.62,65.733,0.1913,84.098,151.82,63.303,0.19913,84.327,64.518,154.22,0.19519,monoclinic,0,5.712268617,H4
mp-2235,YbRh2,YbRh2,130.67,129.24,48.4,0.33515,130.67,121.65,45.229,0.34483,130.67,46.815,125.46,0.33997,cubic,0,11.92520919,H1a
mp-31080,YAlSi,YAlSi,88.444,154.82,64.067,0.20826,88.335,148.96,61.104,0.21894,88.389,62.585,151.9,0.21357,orthorhombic,0,4.03791517,H4
mp-765195,WO2F,WO2F,94.889,196.96,85.333,0.15405,78.301,105.42,41.32,0.27562,86.595,63.327,152.75,0.20601,monoclinic,1.6563,6.192863043,H4
mp-863739,ErCdRh2,ErCdRh2,125,134.68,51,0.32042,125,123.4,46.2,0.33547,125,48.6,129.07,0.3279,cubic,0,11.11694092,H1a
mp-28945,Si2NiP3,Si2NiP3,105.11,147.97,58.467,0.26538,104.65,136.01,52.989,0.28339,104.88,55.728,142.03,0.2743,orthorhombic,0,3.301682849,H4
mp-13155,Hf2Ag,Hf2Ag,111.78,144.11,56.067,0.28513,111.7,131.2,50.3,0.30423,111.74,53.183,137.7,0.29461,tetragonal,0,12.35497755,H4
mp-20862,CoSe2,CoSe2,106.11,142.58,55.867,0.27606,106.1,139.91,54.642,0.28023,106.11,55.254,141.24,0.27814,orthorhombic,0,6.93658238,H4
mp-21157,TmNiGe,TmNiGe,96.556,150.21,60.533,0.24072,93.612,145.58,58.663,0.24081,95.084,59.598,147.89,0.24076,orthorhombic,0,9.623630505,H4
mvc-6921,MgMn2O4,MgMn2O4,140.89,168.86,64.933,0.30025,137.94,65.122,22.909,0.42132,139.41,43.921,119.24,0.35745,orthorhombic,0.949,4.583997437,H2
mp-1018664,CeO2,CeO2,142.67,155.56,59,0.31828,120.98,92.396,33.655,0.37271,131.82,46.327,124.41,0.34271,tetragonal,2.1576,5.96211566,H4
mp-1017441,SrRhO3,SrRhO3,100.67,144.7,57.4,0.26043,100.67,144.31,57.219,0.26107,100.67,57.31,144.51,0.26075,cubic,0,6.167951452,H1a
mp-20061,GePt2,GePt2,177.89,105.2,37.533,0.40144,176.12,79.918,28.054,0.42437,177.01,32.794,92.658,0.41275,hexagonal,0,16.17220573,H4
mp-4998,Sr2IrO4,Sr2IrO4,128.89,131.73,49.533,0.32967,128.79,120.91,44.997,0.34353,128.84,47.265,126.35,0.33656,tetragonal,0,7.158029502,H4
mp-20382,Ti6Sn5,Ti6Sn5,105.11,142.81,56.067,0.27356,105.11,140.51,55.007,0.2772,105.11,55.537,141.66,0.27538,hexagonal,0,6.813391659,H4
mp-13453,BePd3,BePd3,161.89,115.29,41.733,0.3813,161.8,91.096,32.392,0.40617,161.85,37.063,103.3,0.39362,orthorhombic,0,10.12152584,H4
mp-22159,UNiAs2,UNiAs2,112.89,139.57,53.933,0.29394,110.33,135.42,52.267,0.29544,111.61,53.1,137.5,0.29468,tetragonal,0,10.36831113,H4
mp-862666,DyGaRh2,DyGaRh2,146.67,114.52,41.8,0.36986,146.67,113.28,41.304,0.37127,146.67,41.552,113.9,0.37057,cubic,0,10.74860699,H1a
mp-551675,Li3UO4,Li3UO4,92.444,156.13,64.067,0.21851,81.891,147.9,61.677,0.19899,87.168,62.872,152.06,0.20926,tetragonal,0.3877,6.260313274,H1a
mp-5663,BaCeO3,BaCeO3,111.67,139.07,53.8,0.29244,111.67,135.53,52.218,0.29772,111.67,53.009,137.3,0.29507,cubic,2.4889,6.033613518,H2
mp-30365,BeAu,BeAu,147.67,113.08,41.2,0.37237,147.67,113.02,41.176,0.37243,147.67,41.188,113.05,0.3724,cubic,0,12.9814004,H1a
mp-12802,AlCu3,AlCu3,133,129.49,48.4,0.33773,132.93,116.77,43.135,0.35359,132.96,45.768,123.17,0.34561,orthorhombic,0,7.287481775,H4
mp-999067,Ti2CoGe,Ti2CoGe,135.67,122.53,45.4,0.34947,135.67,119.84,44.296,0.35277,135.67,44.848,121.19,0.35112,cubic,0,6.622847281,H1a
mp-11445,Y(TiGa2)2,Y(TiGa2)2,95.556,151.98,61.533,0.23492,94.838,142.46,57,0.24965,95.197,59.266,147.24,0.24221,tetragonal,0,6.131493289,H4
mp-20426,Fe2As,Fe2As,147.44,125.66,46.267,0.35796,133.04,110.43,40.548,0.36167,140.24,43.407,118.04,0.35972,tetragonal,0,7.948233638,H4
mp-2588,YCo3,YCo3,152.67,112.39,40.8,0.37731,152.32,106.63,38.541,0.38333,152.5,39.67,109.51,0.38031,trigonal,0,7.541135565,H2
mp-40251,BaLaMgTaO6,BaLaMgTaO6,142,129.42,48,0.3481,142,103.79,37.655,0.37818,142,42.828,116.75,0.36297,cubic,2.9437,7.150100419,H2
mp-864625,Ho2IrRh,Ho2IrRh,124.67,128.56,48.4,0.32812,124.67,128.42,48.34,0.32831,124.67,48.37,128.49,0.32822,cubic,0,13.02591012,H1a
mp-20362,Mn3NiN,Mn3NiN,121.33,131.88,50,0.31884,121.33,129.52,48.981,0.32209,121.33,49.491,130.7,0.32047,cubic,0,6.973612954,H1a
mp-8123,TmCuSi,TmCuSi,94.889,157.42,64.333,0.2235,86.959,141.74,57.694,0.22835,90.924,61.014,149.58,0.22581,hexagonal,0,8.05408007,H4
mp-109,Si,Si,101,163.39,66.4,0.23037,96.621,125.84,49.046,0.28292,98.811,57.723,144.94,0.25552,orthorhombic,0,3.045338304,H4
mp-18759,Mn3O4,Mn3O4,130.11,137.82,52.067,0.32346,125.08,114.99,42.689,0.34679,127.6,47.378,126.48,0.33479,tetragonal,0.8357,4.592823197,H1a
mp-754322,Sr2CuO4,Sr2CuO4,106.22,141.44,55.333,0.27807,105.92,139.51,54.475,0.28048,106.07,54.904,140.47,0.27927,tetragonal,0,5.269656105,H4
mp-1543,Ge2Pt,Ge2Pt,120.33,143.64,55.2,0.30106,110.16,125.53,47.911,0.31008,115.25,51.556,134.6,0.30535,orthorhombic,0,10.32070676,H4
mp-266,Zr2Pd,Zr2Pd,124.44,135.23,51.267,0.31889,122.49,123,46.151,0.33263,123.47,48.709,129.14,0.32567,tetragonal,0,7.845685272,H4
mp-976976,MgPd5,MgPd5,139.22,121.71,44.933,0.3543,139.17,115.28,42.322,0.36194,139.19,43.627,118.5,0.35811,trigonal,0,9.856102998,H2
mp-31404,Mg5Si6,Mg5Si6,25.222,51.731,22.333,0.15816,375.01,87.368,29.897,0.46117,200.11,26.115,75.079,0.43747,monoclinic,0,2.406834553,H4
mp-2825,ErPd3,ErPd3,134,138.6,52.2,0.32761,134,104.9,38.298,0.36953,134,45.249,122.01,0.34824,cubic,0,11.63833786,H1a
mp-1746,MgF2,MgF2,102.67,142.58,56.2,0.26853,102.67,142.31,56.073,0.26898,102.67,56.137,142.45,0.26875,cubic,6.7228,3.286157841,H2
mp-744,HoP,HoP,88.333,156.59,65,0.20455,88.333,144.97,59.102,0.22647,88.333,62.051,150.83,0.21541,cubic,0,7.251702115,H1a
mp-11435,Er(TiGa2)2,Er(TiGa2)2,97.111,151.45,61.067,0.24007,96.438,140.44,55.849,0.25729,96.774,58.458,145.98,0.24859,tetragonal,0,7.254848358,H4
mp-1003485,Mg2Mn3O6,Mg2Mn3O6,109,156.78,62.2,0.26028,93.434,129.77,51.149,0.26852,101.22,56.674,143.28,0.26407,monoclinic,0.1382,4.141925343,H4
mp-165,Si,Si,89,152.92,63,0.21364,88.984,147.8,60.417,0.22317,88.992,61.709,150.37,0.21838,hexagonal,0.5139,2.282365739,H1a
mp-982245,PbAuO3,PbAuO3,184.67,102.47,36.4,0.40752,184.67,69.435,24.154,0.43733,184.67,30.277,86.124,0.42227,cubic,0,10.51428091,H1a
mp-976106,Hf3Tl,Hf3Tl,99.667,148.67,59.4,0.2514,98.55,140.13,55.474,0.26301,99.109,57.437,144.41,0.25715,tetragonal,0,13.79418207,H4
mp-623134,ZrInCu2,ZrInCu2,116.67,142.59,55,0.2963,116.67,123.91,46.83,0.32299,116.67,50.915,133.35,0.3095,cubic,0,8.366624505,H1a
mp-1025172,Ho(TiGa2)2,Ho(TiGa2)2,94,153.28,62.4,0.22822,93.238,141.89,56.921,0.24637,93.619,59.661,147.62,0.23719,tetragonal,0,7.17580768,H4
mp-7169,TmPPt,TmPPt,138,129.04,48,0.34416,122.24,119.72,44.78,0.33677,130.12,46.39,124.39,0.34068,hexagonal,0,11.7220779,H4
mp-7173,ScSbPt,ScSbPt,110,139.22,54,0.28906,110,135.98,52.545,0.29397,110,53.272,137.6,0.29151,cubic,0.6597,9.198599704,H5
mp-16517,TmAl2Ni,TmAl2Ni,94,153.68,62.6,0.22751,91.841,142.23,57.263,0.24189,92.92,59.932,147.98,0.23458,orthorhombic,0,6.754852355,H4
mp-985280,Co3Bi,Co3Bi,131.67,132.67,49.8,0.33206,127.04,116.98,43.438,0.34653,129.35,46.619,124.86,0.33913,tetragonal,0,11.41141182,H4
mp-22719,Ba2NdCu3O7,Ba2NdCu3O7,111.89,142.07,55.133,0.28838,105.15,134.87,52.43,0.28622,108.52,53.782,138.47,0.28734,orthorhombic,0,6.532421108,H4
mp-571262,CaRh2,CaRh2,123,131.63,49.8,0.32163,123,126.47,47.593,0.32863,123,48.696,129.06,0.32512,cubic,0,7.485835644,H1a
mp-3211,Nd2SO2,Nd2SO2,104.33,142.07,55.8,0.27305,104.11,140.09,54.904,0.27573,104.22,55.352,141.08,0.27439,trigonal,3.016,6.221851592,H2
mp-974973,HfZrZn2,HfZrZn2,110.67,152.02,59.8,0.27106,110.67,121.43,46.098,0.31712,110.67,52.949,137,0.29368,cubic,0,9.049504392,H1a
mp-4768,Eu(SiNi)2,Eu(SiNi)2,105.11,145.82,57.467,0.26878,103.62,136.09,53.112,0.28111,104.36,55.289,140.97,0.27487,tetragonal,0,6.820487717,H4
mp-770690,Mn3TeO6,Mn3TeO6,126.89,134.77,50.933,0.32298,118.46,123.43,46.528,0.32634,122.67,48.731,129.1,0.3246,trigonal,0.5374,5.310555986,H2
mp-1029408,Mg2NbN3,Mg2NbN3,123.22,139.37,53.133,0.31149,114.93,123.28,46.655,0.32121,119.07,49.894,131.34,0.31617,orthorhombic,2.5163,3.751669737,H2
mp-600125,HfInCu2,HfInCu2,122.67,142.18,54.4,0.30682,122.67,115.25,42.894,0.34341,122.67,48.647,128.9,0.32486,cubic,0,10.62059282,H1a
mp-13436,PrMgNi4,PrMgNi4,126.33,128.29,48.2,0.33076,126.33,124.62,46.652,0.3356,126.33,47.426,126.45,0.33317,cubic,0,7.275103259,H1a
mp-21493,U2Ga8Ru,U2Ga8Ru,99.444,147.5,58.867,0.2528,99.348,139.86,55.266,0.26537,99.396,57.066,143.7,0.25905,tetragonal,0,9.243002226,H4
mp-11807,LiPt,LiPt,121.33,153.2,59.4,0.28956,107.85,114.8,43.401,0.32259,114.59,51.4,134.14,0.3049,hexagonal,0,11.92682753,H4
mp-1029826,Li6OsN4,Li6OsN4,84.667,153.74,64.2,0.19736,82.852,151.42,63.333,0.19541,83.759,63.766,152.58,0.19639,tetragonal,0.0403,4.348326272,H1a
mp-12071,Ti3As,Ti3As,125.67,134.3,50.8,0.32188,125.67,119.22,44.421,0.34189,125.67,47.61,126.82,0.33181,cubic,0,5.730681816,H1a
mp-1702,LaRh2,LaRh2,134.67,126.79,47.2,0.34309,134.67,114.49,42.143,0.35831,134.67,44.671,120.67,0.35065,cubic,0,9.959708304,H1a
mp-10133,Sc3BPb,Sc3BPb,79,155.97,66.6,0.17095,79,153.71,65.369,0.17571,79,65.985,154.84,0.17333,cubic,0.0285,5.68358679,H5
mp-997098,CuPtO2,CuPtO2,161.44,115.61,41.867,0.38065,147.99,97.534,35.08,0.39016,154.72,38.473,106.59,0.38518,orthorhombic,0,9.849327398,H4
mp-11293,ZrCdCu2,ZrCdCu2,115,144.09,55.8,0.29117,115,122.69,46.398,0.32218,115,51.099,133.52,0.30649,cubic,0,8.333554967,H1a
mp-168,Si,Si,83.333,152.49,63.8,0.19503,83.333,152.46,63.785,0.19509,83.333,63.793,152.47,0.19506,cubic,0,2.530928131,H1a
mp-568232,Ti6Sn5,Ti6Sn5,102.67,142.15,56,0.26923,102.49,140.47,55.234,0.27158,102.58,55.617,141.31,0.2704,orthorhombic,0,6.730393517,H4
mp-4054,YAl3Ni,YAl3Ni,93,149.76,60.8,0.23161,92.913,144.31,58.135,0.24114,92.956,59.467,147.05,0.23635,orthorhombic,0,4.314691098,H4
mp-1018828,NpSeO,NpSeO,113,149.89,58.6,0.27892,98.6,128.67,50.164,0.2825,105.8,54.382,139.28,0.28059,tetragonal,0,10.48110715,H4
mp-864645,YbSiPt2,YbSiPt2,133,129.01,48.2,0.33833,125.62,118.81,44.253,0.34237,129.31,46.227,123.91,0.34029,orthorhombic,0,13.99468868,H4
mp-13008,NdCrGe3,NdCrGe3,90.111,149.84,61.267,0.22286,88.043,148.63,60.98,0.21865,89.077,61.124,149.24,0.22077,hexagonal,0,7.266653481,H4
mp-31182,ErAl2Ni,ErAl2Ni,97.667,151.47,61,0.24153,93.363,139.54,55.777,0.2509,95.515,58.389,145.51,0.24609,orthorhombic,0,6.656078415,H4
mp-13156,HfAg,HfAg,117.22,145.67,56.333,0.29289,117.07,117.82,44.218,0.33226,117.15,50.276,131.95,0.31227,tetragonal,0,12.03517773,H4
mp-11539,SmAl3Pd2,SmAl3Pd2,106.22,140.57,54.933,0.27944,104.02,138.45,54.158,0.27817,105.12,54.546,139.51,0.27881,hexagonal,0,6.764598297,H4
mp-1009822,SnC,SnC,89,159.91,66.6,0.20054,89,137.91,55.532,0.24174,89,61.066,149.1,0.22079,cubic,0,7.899826216,H1a
mp-597,TiNi,TiNi,151.78,109.97,39.867,0.37924,151.36,106.48,38.501,0.38276,151.57,39.184,108.23,0.38099,trigonal,0,6.487972612,H2
mp-11194,NdMgNi4,NdMgNi4,117.67,133.23,50.8,0.31129,117.67,129.43,49.153,0.31666,117.67,49.976,131.33,0.31397,cubic,0,7.541559942,H1a
mp-1349,SrPt2,SrPt2,117.67,133.23,50.8,0.31129,117.67,129.43,49.153,0.31666,117.67,49.976,131.33,0.31397,cubic,0,12.90723324,H1a
mp-16358,ZnNi2Ge,ZnNi2Ge,148.67,130.99,48.4,0.35316,148.67,88.771,31.693,0.40048,148.67,40.046,110.24,0.37641,cubic,0,8.647020288,H1a
mp-19133,YVO4,YVO4,126.67,145.05,55.4,0.30914,122.4,107.74,39.807,0.35329,124.53,47.604,126.67,0.33047,tetragonal,2.9772,4.069881875,H4