Material_ID,Formula,pretty_formula,KV ,EV ,GV ,PV ,KR ,ER ,GR ,PR ,bulk,shear,young,poisson,csyst,gap,density,y_cla
mp-569752,UPt,UPt,123.78,74.64,26.667,0.3995,122.05,71.698,25.568,0.40209,122.92,26.117,73.17,0.40079,orthorhombic,0,16.16882624,H4
mp-8790,Ba2CuO3,Ba2CuO3,81.333,102.66,39.8,0.28964,80.34,100.89,39.085,0.29069,80.836,39.443,101.77,0.29016,orthorhombic,0,6.048977342,H4
mp-1029313,NaRuN,NaRuN,108.89,108.18,40.533,0.33442,78.034,78.587,29.496,0.33215,93.461,35.015,93.383,0.33347,hexagonal,0.4637,5.067955908,H1a
mp-3053,DyAlNi,DyAlNi,100.89,104.43,39.333,0.32749,99.574,72.583,26.327,0.37851,100.23,32.83,88.795,0.35235,hexagonal,0,7.589343538,H4
mp-2102,PrGe,PrGe,63,115.22,48.2,0.19519,62.604,109.37,45.239,0.20882,62.802,46.719,112.31,0.20195,orthorhombic,0,6.824055601,H4
mp-865912,LiZn2Rh,LiZn2Rh,100,121.45,46.8,0.29758,100,53.465,18.947,0.41089,100,32.874,88.882,0.35186,cubic,0,7.193912961,H1a
mp-10849,AsPdSe,AsPdSe,93.667,95.263,35.8,0.33049,93.667,91.064,34.031,0.33797,93.667,34.915,93.169,0.33422,cubic,0,7.291811498,H1a
mp-20865,YCuPb,YCuPb,68.444,110.87,45.067,0.23003,66.956,108.16,43.942,0.23076,67.7,44.504,109.52,0.23039,hexagonal,0,8.684255397,H4
mp-10797,CaSiNi2,CaSiNi2,87,111.64,43.4,0.28614,78.952,88.468,33.683,0.31325,82.976,38.541,100.12,0.29889,hexagonal,0,4.535499797,H4
mp-3197,TbAlPd,TbAlPd,89.889,99.305,37.733,0.31588,89.043,92.381,34.806,0.32709,89.466,36.27,95.855,0.32143,hexagonal,0,8.002972268,H4
mp-16753,LuCuPb,LuCuPb,67.111,112.07,45.867,0.22168,64.52,108.91,44.685,0.21866,65.816,45.276,110.49,0.2202,hexagonal,0,11.28607553,H4
mp-567588,DyInRh,DyInRh,101.78,90.482,33.467,0.35183,101.14,84.992,31.248,0.35995,101.46,32.357,87.745,0.35586,hexagonal,0,9.784891473,H4
mp-510437,In3Pd2,In3Pd2,88.889,97.784,37.133,0.31666,88.133,95.135,36.033,0.32009,88.511,36.583,96.46,0.31836,trigonal,0,8.879013932,H2
mp-1016902,ZnSnO3,ZnSnO3,55.667,127.15,56.8,0.1193,55.667,103.47,43.468,0.1902,55.667,50.134,115.68,0.15366,cubic,0,5.893869473,H1a
mp-7976,RbGdO2,RbGdO2,72.444,114.03,46.067,0.23766,70.857,99.923,39.496,0.26497,71.651,42.781,107.04,0.25101,trigonal,3.0399,6.271867724,H2
mp-1029457,Ba(CoN)2,Ba(CoN)2,122.33,132.48,50.2,0.31951,73.429,46.631,16.724,0.39416,97.881,33.462,90.116,0.34655,tetragonal,0,5.554370311,H4
mp-2700,CaSi2,CaSi2,62.667,112.8,47,0.2,62.569,111.47,46.329,0.20306,62.618,46.665,112.14,0.20153,trigonal,0,2.362147976,H2
mp-560399,NaMgF3,NaMgF3,70.667,109.72,44.2,0.24122,70.667,105.4,42.112,0.25142,70.667,43.156,107.57,0.2463,cubic,5.9608,2.808171843,H2
mp-769673,Tb2Bi2O7,Tb2Bi2O7,131.33,91.86,33.2,0.38343,131.33,40.021,13.808,0.44921,131.33,23.504,66.542,0.41556,cubic,0,8.591522379,H1a
mp-22595,UAsSe,UAsSe,75,111.67,44.6,0.25185,71.733,100.15,39.513,0.26731,73.367,42.056,105.93,0.25936,tetragonal,0,9.789955102,H4
mp-20766,CeCuGe,CeCuGe,72.778,118.18,48.067,0.22935,71.842,94.437,36.863,0.28092,72.31,42.465,106.54,0.25444,hexagonal,0,7.418167337,H4
mp-6980,ScCuS2,ScCuS2,84.667,102.33,39.4,0.29857,84.667,95.133,36.235,0.31273,84.667,37.817,98.75,0.30561,trigonal,0.9184,3.911385051,H2
mp-568917,LaInAg2,LaInAg2,96,91.709,34.2,0.34078,96,90.68,33.771,0.34257,96,33.985,91.195,0.34168,cubic,0,8.140214544,H1a
mp-574235,Yb(NiGe)2,Yb(NiGe)2,92.667,97.962,37,0.32381,89.014,91.275,34.337,0.3291,90.84,35.668,94.621,0.3264,tetragonal,0,8.931215266,H4
mp-2341,Li3N,Li3N,65.111,113.78,47.067,0.20875,65.063,107.36,43.823,0.22497,65.087,45.445,110.59,0.2168,hexagonal,1.4226,1.655734401,H1a
mp-544,Ti3Ir,Ti3Ir,168.33,40.867,14,0.45954,168.33,37.793,12.92,0.46258,168.33,13.46,39.332,0.46106,cubic,0,8.833384057,H1a
mp-862658,LiCu3,LiCu3,90.333,111.33,43,0.29459,90.27,77.811,28.684,0.35634,90.302,35.842,94.962,0.32473,tetragonal,0,6.929195303,H4
mp-7298,Li(CuP)2,Li(CuP)2,92.778,105.53,40.267,0.31042,88.729,83.459,31.066,0.34323,90.753,35.667,94.606,0.32626,tetragonal,0,4.525748923,H4
mp-27562,Na2Pd3O4,Na2Pd3O4,102.78,112.44,42.667,0.31766,83.237,73.501,27.166,0.35283,93.007,34.916,93.098,0.33317,orthorhombic,0.7313,6.1886625,H2
mp-556777,Li2CO3,Li2CO3,77.111,135,55.867,0.20822,74.077,70.394,26.235,0.34162,75.594,41.051,104.28,0.2701,hexagonal,3.7664,2.430922921,H1b
mp-1854,EuPd2,EuPd2,85.667,101.13,38.8,0.30325,85.667,94.484,35.893,0.31618,85.667,37.347,97.824,0.30968,cubic,0,10.03479638,H1a
mp-546546,SiO2,SiO2,96,111.79,42.8,0.30593,69.28,87.72,34.027,0.28897,82.64,38.414,99.781,0.29876,trigonal,5.5604,2.036633283,H2
mp-865587,Y2CuRh,Y2CuRh,89,96.563,36.6,0.31917,89,94.665,35.784,0.32272,89,36.192,95.615,0.32095,cubic,0,6.900597214,H1a
mp-1851,SnPd2,SnPd2,134.78,73.464,26.067,0.40915,132.42,55.29,19.327,0.43041,133.6,22.697,64.441,0.41961,orthorhombic,0,10.58337717,H4
mp-1018133,LiHPd,LiHPd,96.889,113.13,43.333,0.30539,72.965,83.328,31.813,0.30966,84.927,37.573,98.233,0.30722,tetragonal,0,6.145999659,H4
mp-1399,AlAu,AlAu,110,105.59,39.4,0.34001,97.937,64.665,23.261,0.38996,103.97,31.331,85.412,0.36308,monoclinic,0,10.5423521,H4
mp-30579,ErCu5,ErCu5,123.33,72.879,26,0.40152,123.33,70.629,25.143,0.40456,123.33,25.571,71.755,0.40303,cubic,0,9.420409229,H1a
mp-10435,Y(AlSi)2,Y(AlSi)2,76.667,109.96,43.6,0.26096,76.582,96.781,37.53,0.28937,76.624,40.565,103.44,0.275,trigonal,0,3.267732276,H2
mp-574025,HfInAu2,HfInAu2,126.33,97.63,35.6,0.3712,126.33,39.954,13.803,0.44729,126.33,24.702,69.57,0.40822,cubic,0,14.51937194,H1a
mp-756018,BaMgO2,BaMgO2,78.556,102.44,39.933,0.28266,78.466,101.95,39.717,0.28345,78.511,39.825,102.2,0.28305,trigonal,3.1605,4.561553749,H2
mp-556911,FeF2,FeF2,97.556,101.21,38.133,0.32709,96.265,78.706,28.857,0.36373,96.91,33.495,90.104,0.34504,tetragonal,1.7416,4.0672978,H1a
mp-29633,LiGePd2,LiGePd2,121.33,110.55,41,0.34815,121.33,32.616,11.207,0.4552,121.33,26.103,73.07,0.39963,cubic,0,8.602251007,H1a
mp-567097,LiCu2Ge,LiCu2Ge,89,127.19,50.4,0.26181,89,60.444,21.792,0.38681,89,36.096,95.392,0.32136,cubic,0,6.719387397,H1a
mp-5676,MnSbPt,MnSbPt,110.67,85.058,31,0.3719,110.67,76.047,27.444,0.38547,110.67,29.222,80.575,0.37865,cubic,0,10.19948976,H1a
mp-862664,Rb2Zr2O5,Rb2Zr2O5,88.889,110.05,42.533,0.29366,74.293,90.31,34.804,0.2974,81.591,38.669,100.18,0.29536,tetragonal,2.1348,4.627600054,H4
mp-568908,TiAs,TiAs,113.22,94.039,34.533,0.36157,110.66,64.711,23.069,0.40254,111.94,28.801,79.579,0.38152,hexagonal,0,5.742075906,H4
mp-31153,CaGePt,CaGePt,91.333,97.328,36.8,0.32239,88.573,91.904,34.627,0.32707,89.953,35.713,94.618,0.32469,orthorhombic,0,8.466892238,H4
mvc-11115,TiO2,TiO2,96.778,111.14,42.467,0.30859,79.63,80.232,30.116,0.33207,88.204,36.291,95.742,0.31909,trigonal,2.4625,3.548799691,H2
mp-16036,Tb2TeO2,Tb2TeO2,83.778,112.04,43.867,0.2771,80.442,87.017,32.968,0.31971,82.11,38.417,99.703,0.29762,tetragonal,1.2205,8.062274777,H1a
mp-5590,YMgGa,YMgGa,59.778,115.21,48.867,0.17879,59.724,110.3,46.26,0.19219,59.751,47.563,112.77,0.18545,hexagonal,0,4.447065763,H4
mp-6985,Ti,Ti,107,101.45,37.8,0.34197,107,63.348,22.603,0.40133,107,30.201,82.813,0.37101,cubic,0,4.582642172,H1a
mp-13302,LuSnAu,LuSnAu,79.667,104.99,41,0.28036,74.551,100.4,39.355,0.27555,77.109,40.178,102.7,0.27803,hexagonal,0,11.6941713,H4
mp-131,Zr,Zr,94.222,93.748,35.133,0.33417,93.887,89.438,33.342,0.34123,94.055,34.238,91.598,0.33769,hexagonal,0,6.4460921,H4
mp-865500,Na2Hf2O5,Na2Hf2O5,106.67,78.255,28.4,0.37773,92.129,97.046,36.637,0.32444,99.398,32.518,87.963,0.35251,tetragonal,2.0427,6.266217896,H4
mp-570769,CaInCu4,CaInCu4,86.667,98.548,37.6,0.31048,86.667,94.434,35.814,0.3184,86.667,36.707,96.497,0.31443,cubic,0,7.103732315,H1a
mp-11554,ZrPt,ZrPt,165.67,63.202,22,0.43642,165.67,16.745,5.6452,0.48315,165.67,13.823,40.346,0.45941,cubic,0,12.53203813,H1a
mp-981386,ScH4Pd3,ScH4Pd3,157.33,86.74,30.8,0.40811,157.33,3.686,1.2319,0.4961,157.33,16.016,46.471,0.45077,cubic,0,8.131404839,H1a
mp-27275,Li3BO3,Li3BO3,76.111,112.08,44.667,0.25458,70.242,97.81,38.571,0.26792,73.176,41.619,104.96,0.26095,monoclinic,5.1566,2.091798179,H2
mp-561949,GdBO3,GdBO3,114.67,105.57,39.2,0.34656,114.11,47.528,16.612,0.43058,114.39,27.906,77.422,0.38719,hexagonal,2.2436,4.557674388,H1b
mp-754628,WN2,WN2,121.22,74.187,26.533,0.398,121.22,70.965,25.301,0.40243,121.22,25.917,72.579,0.40021,orthorhombic,0.9598,4.88988975,H2
mp-865806,LuGaCu2,LuGaCu2,112,84.137,30.6,0.3748,112,73.923,26.591,0.39,112,28.595,79.058,0.38235,cubic,0,9.696755683,H1a
mp-865176,HfCu3,HfCu3,133,89.9,32.4,0.38734,133,36.958,12.712,0.45369,133,22.556,64.047,0.41974,cubic,0,10.7780359,H1a
mp-7083,LaSi,LaSi,67.778,111.87,45.667,0.2249,65.6,105.47,42.801,0.23205,66.689,44.234,108.67,0.2284,orthorhombic,0,5.434153603,H4
mp-21092,InNi2,InNi2,136.11,88.163,31.667,0.39205,135.38,34.724,11.914,0.45725,135.75,21.79,62.051,0.42382,hexagonal,0,9.13643644,H4
mp-7364,Ca(SiAu)2,Ca(SiAu)2,93.444,97.745,36.867,0.32566,91.718,86.89,32.371,0.34211,92.581,34.619,92.346,0.33376,tetragonal,0,8.386462301,H4
mp-541365,LiEuH3,LiEuH3,57.667,113.46,48.4,0.17209,57.667,113.45,48.395,0.17211,57.667,48.398,113.45,0.1721,cubic,0,5.195134574,H1a
mp-13725,Li3PO4,Li3PO4,70.333,107.16,43,0.24606,70.277,105.86,42.381,0.24894,70.305,42.69,106.51,0.2475,orthorhombic,5.8384,2.388292852,H2
mp-863652,Ho2CdOs,Ho2CdOs,101,87.81,32.4,0.3551,101,85.22,31.346,0.35937,101,31.873,86.517,0.35723,cubic,0,11.87928812,H1a
mp-867863,SmCu4Ag,SmCu4Ag,96.667,89.852,33.4,0.34508,96.667,89.089,33.084,0.3464,96.667,33.242,89.47,0.34574,cubic,0,9.066873776,H1a
mp-30846,Sn3Pt2,Sn3Pt2,101.89,88.701,32.733,0.35491,101.75,83.159,30.488,0.36379,101.82,31.611,85.939,0.35933,hexagonal,0,11.11942745,H4
mp-555934,VF2,VF2,94.444,108.06,41.267,0.3093,91.755,75.054,27.519,0.36367,93.1,34.393,91.866,0.33554,tetragonal,0,3.707784715,H4
mp-972680,Sm(AgGe)2,Sm(AgGe)2,73.778,105.2,41.667,0.26236,73.773,103.31,40.784,0.2666,73.775,41.225,104.26,0.26447,tetragonal,0,8.277733692,H4
mp-950,NaZn13,NaZn13,64,110.55,45.6,0.21212,64,109.24,44.937,0.21551,64,45.269,109.9,0.21381,cubic,0,6.241478257,H1a
mp-1825,Cu2Sb,Cu2Sb,93.222,93.163,34.933,0.33344,91.477,91.249,34.208,0.33375,92.349,34.571,92.206,0.33359,tetragonal,0,8.363481634,H4
mp-985296,Ag3Pd,Ag3Pd,99.444,101.28,38.067,0.33026,99.235,73.161,26.563,0.37713,99.34,32.315,87.461,0.35326,tetragonal,0,10.31559559,H4
mp-20866,GeRh,GeRh,78,120.73,48.6,0.24204,78,80.89,30.475,0.32716,78,39.537,101.47,0.28319,cubic,0,9.755533164,H1a
mp-8948,CeAsPd,CeAsPd,87.667,100.07,38.2,0.30976,78.514,96.301,37.165,0.29558,83.09,37.683,98.203,0.30302,hexagonal,0,8.244547708,H4
mp-7243,LiSnPd2,LiSnPd2,108.67,99.686,37,0.34711,108.67,61.273,21.789,0.40602,108.67,29.395,80.89,0.37593,cubic,0,8.748706069,H1a
mvc-10478,CaBi4O9,CaBi4O9,87,102.7,39.4,0.30326,83.882,90.505,34.278,0.32018,85.441,36.839,96.629,0.31151,monoclinic,0.9269,7.82556301,H4
mp-20290,TbCuPb,TbCuPb,62.111,111.96,46.667,0.19957,61.194,109.93,45.782,0.20059,61.652,46.225,110.95,0.20008,hexagonal,0,10.38135787,H4
mp-865284,Tm2CdOs,Tm2CdOs,101.67,88.845,32.8,0.35435,101.67,82.281,30.137,0.36511,101.67,31.468,85.576,0.35971,cubic,0,12.3844984,H1a
mp-1019280,SrZnPb,SrZnPb,133.33,105.61,38.6,0.36799,73.244,63.183,23.294,0.35623,103.29,30.947,84.41,0.3638,hexagonal,0,6.604069007,H4
mp-754912,LiCuO2,LiCuO2,105,121.78,46.6,0.30669,104.83,40.981,14.281,0.43485,104.91,30.44,83.268,0.36772,trigonal,0,4.380897404,H2
mp-24096,NdH2,NdH2,73.667,109.25,43.6,0.25283,73.667,98.269,38.456,0.27767,73.667,41.028,103.81,0.26513,cubic,0,5.845979476,H1a
mp-976185,NaBeO3,NaBeO3,91.111,92.767,34.867,0.3303,91.11,92.421,34.72,0.33094,91.111,34.794,92.594,0.33062,cubic,0,2.872668967,H1a
mp-864772,LiSc2Au,LiSc2Au,73.333,107.49,42.8,0.25571,73.333,100.41,39.476,0.27179,73.333,41.138,103.97,0.2637,cubic,0,6.255826338,H1a
mp-13118,CeZn3Pd2,CeZn3Pd2,90.333,95.336,36,0.3241,86.101,93.35,35.378,0.3193,88.217,35.689,94.345,0.32176,hexagonal,0,8.432224616,H4
mp-27253,Au2O3,Au2O3,91.667,109.76,42.2,0.30044,70.921,87.939,33.997,0.29334,81.294,38.098,98.853,0.29733,orthorhombic,0.8886,10.40669603,H2
mp-9799,Yb4As2O,Yb4As2O,63.444,111.27,46.067,0.2077,63.293,107.97,44.408,0.21568,63.369,45.238,109.63,0.21167,tetragonal,0.9898,9.128306972,H1a
mp-1025116,TmCu4Ag,TmCu4Ag,109.33,79.933,29,0.37815,109.33,79.799,28.947,0.37835,109.33,28.974,79.866,0.37825,cubic,0,9.894115556,H1a
mp-2350,LaS,LaS,79.333,116.49,46.4,0.25527,79.333,82.659,31.16,0.32635,79.333,38.78,100.04,0.28983,cubic,0,5.598981178,H1a
mp-560976,KNiF3,KNiF3,75,103.61,40.8,0.26975,75,101.89,40,0.27358,75,40.4,102.75,0.27167,cubic,0,3.814742119,H1a
mp-754010,ZnCu2O3,ZnCu2O3,110.67,105.66,39.4,0.34087,73.697,77.466,29.237,0.32481,92.182,34.318,91.589,0.33441,orthorhombic,0,6.080592187,H4
mp-5564,Pr(AgGe)2,Pr(AgGe)2,70,107.49,43.2,0.24408,69.989,103.96,41.501,0.25245,69.995,42.351,105.73,0.24825,tetragonal,0,7.938568841,H4
mp-621131,Ti3Ag,Ti3Ag,123,70.767,25.2,0.40411,123,69.467,24.706,0.40587,123,24.953,70.117,0.40499,cubic,0,6.064032077,H1a
mp-11360,ScGaCu2,ScGaCu2,105.67,106.55,40,0.33193,105.67,56.439,20,0.41098,105.67,30,82.219,0.37032,cubic,0,6.778371837,H1a
mp-973910,PaAlCu2,PaAlCu2,106,83.742,30.6,0.36833,106,80.212,29.192,0.37388,106,29.896,81.98,0.3711,cubic,0,9.190392644,H1a
mp-867870,SmAl3,SmAl3,69.222,116.44,47.733,0.21966,67.726,96.122,38.04,0.26345,68.474,42.886,106.44,0.24093,hexagonal,0,4.671258469,H4
mp-10622,PrAs,PrAs,66.667,113.38,46.6,0.21655,66.667,101.39,40.668,0.24653,66.667,43.634,107.46,0.23136,cubic,0,6.334582943,H1a
mp-24095,PrH2,PrH2,76.667,107.4,42.4,0.26652,76.667,95.362,36.885,0.29269,76.667,39.643,101.44,0.27947,cubic,0,5.520679837,H1a
mp-504677,SrPbF6,SrPbF6,57.444,46.089,16.867,0.36628,56.412,162.14,79.402,0.020977,56.928,48.135,112.65,0.17019,tetragonal,0.0083,5.294627652,H1a
mp-7170,UTeP,UTeP,65.111,114.17,47.267,0.20775,62.604,103.78,42.402,0.22372,63.858,44.834,108.99,0.21553,tetragonal,0,9.37576523,H4
mp-1013548,Ca3SbN,Ca3SbN,56,113.09,48.6,0.16343,56,113.08,48.595,0.16346,56,48.598,113.08,0.16345,cubic,0.7798,3.670962491,H5
mp-567416,Ho3Mn3Ga2Si,Ho3Mn3Ga2Si,66,115.9,48,0.20732,65.806,99.44,39.835,0.24815,65.903,43.918,107.81,0.22736,hexagonal,0,8.098063949,H4
mp-11566,ScZn,ScZn,75,116.23,46.8,0.24172,75,87.75,33.621,0.305,75,40.21,102.34,0.27257,cubic,0,4.846371151,H1a
mp-12803,BaEr2F8,BaEr2F8,87.333,105.01,40.4,0.2996,85.018,84.976,31.864,0.33341,86.176,36.132,95.104,0.31606,monoclinic,7.2197,6.618040158,H2
mp-1029868,Sr5(SiN3)2,Sr5(SiN3)2,82.889,105.88,41.133,0.28709,77.856,91.794,35.211,0.3035,80.373,38.172,98.865,0.29499,monoclinic,1.5654,4.354039073,H4
mp-12335,MnCN2,MnCN2,105,103.16,38.6,0.33626,86.439,73.922,27.228,0.35747,95.719,32.914,88.588,0.34575,trigonal,0.227,3.352162581,H2
mp-1955,ErCu,ErCu,79.333,99.64,38.6,0.29067,79.333,99.126,38.369,0.29175,79.333,38.484,99.383,0.29121,cubic,0,9.463506465,H1a
mp-981232,Ti3Nb,Ti3Nb,122.56,81.498,29.333,0.38917,122.37,57.868,20.359,0.42118,122.46,24.846,69.817,0.40498,tetragonal,0,5.589552882,H4
mp-862895,Er2ZnRu,Er2ZnRu,91,92.596,34.8,0.33041,91,90.682,33.991,0.33392,91,34.395,91.64,0.33216,cubic,0,10.157267,H1a
mp-7422,Ca(CuP)2,Ca(CuP)2,86.444,102.31,39.267,0.30275,85.364,87.595,32.956,0.32898,85.904,36.111,95.019,0.31565,tetragonal,0,4.821489896,H4
mp-3241,Sr(CuGe)2,Sr(CuGe)2,71.222,106.83,42.733,0.25,71.218,101.72,40.302,0.26195,71.22,41.518,104.29,0.25595,tetragonal,0,6.330831826,H4
mp-7974,RbSmO2,RbSmO2,71.111,113.25,45.867,0.23457,67.855,97.251,38.557,0.26113,69.483,42.212,105.31,0.2474,trigonal,0,5.958120442,H2
mp-754777,NaLaO2,NaLaO2,95.222,106.03,40.333,0.31442,84.496,78.47,29.166,0.34522,89.859,34.75,92.345,0.32872,trigonal,3.9804,4.884540328,H2
mp-867246,TbGa3,TbGa3,63.556,112.6,46.733,0.20472,62.677,105.18,43.094,0.22032,63.116,44.914,108.91,0.21241,hexagonal,0,7.779226026,H4
mp-2367,LaC2,LaC2,95.556,120.99,46.933,0.28897,88.56,58.605,21.085,0.38971,92.058,34.009,90.841,0.33554,tetragonal,0,5.294806734,H4
mp-1820,YbS,YbS,62.667,113.18,47.2,0.19898,62.667,105.01,43.011,0.22072,62.667,45.106,109.13,0.20975,cubic,2.444,7.498295113,H2
mp-862339,Sc2GaAg,Sc2GaAg,80,104.62,40.8,0.28205,80,92.673,35.455,0.30693,80,38.127,98.702,0.29437,cubic,0,5.605866051,H1a
mp-15608,Ba(MnAs)2,Ba(MnAs)2,69,108.45,43.8,0.23804,67.183,103.47,41.609,0.24332,68.091,42.705,105.96,0.24064,tetragonal,0,5.816688106,H4
mp-19198,CoSO4,CoSO4,77.444,105.56,41.467,0.27283,68.806,100.28,39.886,0.25709,73.125,40.676,102.94,0.26538,orthorhombic,1.5519,3.720772381,H2
mp-19142,Mn2V2O7,Mn2V2O7,99.556,92.863,34.533,0.34454,93.451,82.516,30.497,0.35284,96.503,32.515,87.697,0.34854,monoclinic,1.2685,3.669235492,H4
mp-4109,Ba(AsRu)2,Ba(AsRu)2,81.667,108.87,42.6,0.27782,71.656,92.589,36.037,0.28465,76.661,39.318,100.73,0.281,tetragonal,0,7.392183224,H4
mp-973442,Lu2AgPt,Lu2AgPt,94.667,89.656,33.4,0.34216,94.667,88.175,32.785,0.34476,94.667,33.092,88.916,0.34346,cubic,0,12.81293565,H1a
mp-862375,Sc2TcHg,Sc2TcHg,111.33,83.087,30.2,0.37562,111.33,71.585,25.698,0.39284,111.33,27.949,77.372,0.38417,cubic,0,8.443186068,H1a
mp-866160,Y2AgIr,Y2AgIr,97.667,87.035,32.2,0.35148,97.667,86.657,32.045,0.35212,97.667,32.122,86.846,0.3518,cubic,0,9.012939072,H1a
mp-1019359,ThSbSe,ThSbSe,80.444,104.41,40.667,0.28369,80.352,92.09,35.176,0.30899,80.398,37.921,98.308,0.29621,tetragonal,0,8.873372836,H4
mp-865361,Tm2MgOs,Tm2MgOs,103,83.528,30.6,0.36484,103,82.798,30.306,0.36602,103,30.453,83.163,0.36543,cubic,0,10.78040916,H1a
mp-573,Ni3Se4,Ni3Se4,91.889,93.013,34.933,0.33129,89.688,89.801,33.681,0.33312,90.789,34.307,91.408,0.3322,monoclinic,0,6.970515275,H4
mp-1025176,HfGa5Ni,HfGa5Ni,91.667,93.617,35.2,0.32979,91.172,88.208,32.944,0.33875,91.419,34.072,90.921,0.33424,tetragonal,0,8.449656328,H4
mp-10250,BaLiF3,BaLiF3,68.667,105.49,42.4,0.24396,68.667,105.3,42.308,0.24442,68.667,42.354,105.39,0.24419,cubic,6.5716,5.020979881,H2
mp-20821,NpGa3,NpGa3,62.333,111.53,46.4,0.2018,62.333,106.39,43.765,0.21552,62.333,45.082,108.98,0.20862,cubic,0,9.544149779,H1a
mp-1017540,ZrCd,ZrCd,83.111,103.11,39.867,0.29322,81.881,90.285,34.297,0.31623,82.496,37.082,96.749,0.30454,tetragonal,0,7.546697535,H4
mp-973538,Lu2AlZn,Lu2AlZn,73,116.9,47.4,0.23311,73,87.796,33.78,0.29955,73,40.59,102.73,0.26546,cubic,0,8.452643019,H1a
mp-19908,EuF3,EuF3,92.222,103.77,39.533,0.31246,79.231,85.449,32.361,0.32025,85.727,35.947,94.617,0.31605,orthorhombic,0,6.520795616,H4
mp-6919,ScSnAu,ScSnAu,85.333,98.81,37.8,0.30701,78.95,95.003,36.555,0.29944,82.142,37.178,96.912,0.30336,hexagonal,0,9.098690993,H4
mp-7192,Sc2Sb,Sc2Sb,73,106.15,42.2,0.25766,72.267,99.603,39.205,0.27029,72.633,40.702,102.89,0.26391,tetragonal,0,4.999792971,H4
mp-975405,RbAuO3,RbAuO3,50.667,115.23,51.4,0.12094,50.667,113.87,50.591,0.12542,50.667,50.996,114.55,0.12318,cubic,0,7.315133863,H1a
mp-999485,ZnN,ZnN,132.33,84.195,30.2,0.39396,132.33,38.91,13.408,0.45099,132.33,21.804,62.007,0.42191,cubic,0,5.445586979,H1a
mp-979987,YbThPt2,YbThPt2,109.67,78.938,28.6,0.38003,109.67,77.311,27.961,0.38251,109.67,28.28,78.125,0.38127,cubic,0,14.75665277,H1a
mp-862719,LiY2Os,LiY2Os,84.333,96.381,36.8,0.30952,84.333,94.359,35.918,0.31352,84.333,36.359,95.372,0.31152,cubic,0,7.391111724,H1a
mp-10184,MgSbPt,MgSbPt,88.667,93.259,35.2,0.3247,88.667,91.734,34.55,0.32757,88.667,34.875,92.497,0.32613,cubic,0,8.824873633,H1a
mp-4229,Nd(AgGe)2,Nd(AgGe)2,69,105.99,42.6,0.24399,69,103.63,41.464,0.24968,69,42.032,104.81,0.24683,tetragonal,0,8.061964831,H4
mp-1018629,YPd3C,YPd3C,150.33,76.959,27.2,0.41468,150.33,18.907,6.3918,0.47904,150.33,16.796,48.578,0.44614,cubic,0,8.77765003,H1a
mp-11104,HoInRh,HoInRh,95.222,90.991,33.933,0.34074,94.465,85.175,31.553,0.34972,94.844,32.743,88.092,0.3452,hexagonal,0,9.920696031,H4
mp-570811,PrRe2,PrRe2,178.67,27.714,9.4,0.47415,178.67,27.542,9.3407,0.47431,178.67,9.3703,27.628,0.47423,cubic,0,14.1597865,H1a
mp-18817,NiSeO4,NiSeO4,74,108.49,43.2,0.25566,64.965,100.25,40.331,0.24281,69.483,41.766,104.38,0.24962,orthorhombic,2.1076,4.635240214,H2
mp-23138,SbPbClO2,SbPbClO2,90.333,98.13,37.2,0.31895,82.341,89.37,33.875,0.31911,86.337,35.538,93.75,0.31902,orthorhombic,1.9131,6.701383844,H2
mp-979965,YbSmPt2,YbSmPt2,93.333,89.042,33.2,0.341,93.333,89.038,33.198,0.341,93.333,33.199,89.04,0.341,cubic,0,13.77282903,H1a